
     Program PWSCF v.6.4.1 starts on 24Jul2019 at 12:20: 0 

     This program is part of the open-source Quantum ESPRESSO suite
     for quantum simulation of materials; please cite
         "P. Giannozzi et al., J. Phys.:Condens. Matter 21 395502 (2009);
         "P. Giannozzi et al., J. Phys.:Condens. Matter 29 465901 (2017);
          URL http://www.quantum-espresso.org", 
     in publications or presentations arising from this work. More details at
     http://www.quantum-espresso.org/quote

     Parallel version (MPI), running on     4 processors

     MPI processes distributed on     1 nodes
     R & G space division:  proc/nbgrp/npool/nimage =       4
     Reading input from TMS.1_scf.in

     Current dimensions of program PWSCF are:
     Max number of different atomic species (ntypx) = 10
     Max number of k-points (npk) =  40000
     Max angular momentum in pseudopotentials (lmaxx) =  3

     Subspace diagonalization in iterative solution of the eigenvalue problem:
     a serial algorithm will be used

 
     Parallelization info
     --------------------
     sticks:   dense  smooth     PW     G-vecs:    dense   smooth      PW
     Min        2861    2861    717               230581   230581   28827
     Max        2863    2863    718               230583   230583   28830
     Sum       11449   11449   2869               922329   922329  115313
 


     bravais-lattice index     =            1
     lattice parameter (alat)  =      20.0000  a.u.
     unit-cell volume          =    8000.0000 (a.u.)^3
     number of atoms/cell      =           17
     number of atomic types    =            3
     number of electrons       =        32.00
     number of Kohn-Sham states=           16
     kinetic-energy cutoff     =      90.0000  Ry
     charge density cutoff     =     360.0000  Ry
     convergence threshold     =      1.0E-10
     mixing beta               =       0.5000
     number of iterations used =            8  plain     mixing
     Exchange-correlation      =  SLA  PW   PBX  PBC ( 1  4  3  4 0 0)

     celldm(1)=  20.000000  celldm(2)=   0.000000  celldm(3)=   0.000000
     celldm(4)=   0.000000  celldm(5)=   0.000000  celldm(6)=   0.000000

     crystal axes: (cart. coord. in units of alat)
               a(1) = (   1.000000   0.000000   0.000000 )  
               a(2) = (   0.000000   1.000000   0.000000 )  
               a(3) = (   0.000000   0.000000   1.000000 )  

     reciprocal axes: (cart. coord. in units 2 pi/alat)
               b(1) = (  1.000000  0.000000  0.000000 )  
               b(2) = (  0.000000  1.000000  0.000000 )  
               b(3) = (  0.000000  0.000000  1.000000 )  


     PseudoPot. # 1 for H  read from file:
     /home/bngjn/qe/qe-6.4.1/GIPAW/pseudo/H.pbe-tm-gipaw.UPF
     MD5 check sum: 39a9a69d8410949353303b9fcad9eee2
     Pseudo is Norm-conserving, Zval =  1.0
     Generated by new atomic code, or converted to UPF format
     Using radial grid of  929 points,  0 beta functions with: 

     PseudoPot. # 2 for C  read from file:
     /home/bngjn/qe/qe-6.4.1/GIPAW/pseudo/C.pbe-tm-gipaw.UPF
     MD5 check sum: 6e4a9b9bc4429ee737bc22471ffa2923
     Pseudo is Norm-conserving, Zval =  4.0
     Generated by new atomic code, or converted to UPF format
     Using radial grid of 1073 points,  1 beta functions with: 
                l(1) =   0

     PseudoPot. # 3 for Si read from file:
     /home/bngjn/qe/qe-6.4.1/GIPAW/pseudo/Si.pbe-tm-gipaw.UPF
     MD5 check sum: 744ed8b2dc623e0d56f5dfff7afbe95f
     Pseudo is Norm-conserving, Zval =  4.0
     Generated by new atomic code, or converted to UPF format
     Using radial grid of 1141 points,  2 beta functions with: 
                l(1) =   0
                l(2) =   1

     atomic species   valence    mass     pseudopotential
        H              1.00     1.00000     H ( 1.00)
        C              4.00    12.00000     C ( 1.00)
        Si             4.00    28.00000     Si( 1.00)

     No symmetry found



   Cartesian axes

     site n.     atom                  positions (alat units)
         1           Si  tau(   1) = (   0.0000094  -0.0000094   0.0000094  )
         2           C   tau(   2) = (  -0.0872203  -0.0161950  -0.1533796  )
         3           C   tau(   3) = (   0.0839322   0.1559969   0.0040346  )
         4           C   tau(   4) = (   0.1182874  -0.1310903   0.0148155  )
         5           C   tau(   5) = (  -0.1150087  -0.0087116   0.1345107  )
         6           H   tau(   6) = (  -0.1369579  -0.1067128  -0.1577165  )
         7           H   tau(   7) = (  -0.1568284   0.0594886  -0.1639432  )
         8           H   tau(   8) = (  -0.0218074  -0.0113667  -0.2332678  )
         9           H   tau(   9) = (   0.1515938   0.1630834  -0.0737844  )
        10           H   tau(  10) = (   0.0165540   0.2339292  -0.0044975  )
        11           H   tau(  11) = (   0.1355123   0.1674297   0.0928895  )
        12           H   tau(  12) = (   0.1703210  -0.1234369   0.1038027  )
        13           H   tau(  13) = (   0.0712710  -0.2231200   0.0126612  )
        14           H   tau(  14) = (   0.1864120  -0.1277549  -0.0628617  )
        15           H   tau(  15) = (  -0.0660459   0.0005480   0.2250853  )
        16           H   tau(  16) = (  -0.1849853   0.0670758   0.1276793  )
        17           H   tau(  17) = (  -0.1650959  -0.0991256   0.1339343  )

     number of k points=     1
                       cart. coord. in units 2pi/alat
        k(    1) = (   0.0000000   0.0000000   0.0000000), wk =   2.0000000

     Dense  grid:   922329 G-vectors     FFT dimensions: ( 125, 125, 125)

     Estimated max dynamical RAM per process >     212.60 MB

     Estimated total dynamical RAM >     850.39 MB

     Initial potential from superposition of free atoms

     starting charge   20.67139, renormalised to   32.00000

     negative rho (up, down):  8.453E-05 0.000E+00
     Starting wfcs are   37 randomized atomic wfcs

     total cpu time spent up to now is        5.2 secs

     Self-consistent Calculation

     iteration #  1     ecut=    90.00 Ry     beta= 0.50
     Davidson diagonalization with overlap
     ethr =  1.00E-04,  avg # of iterations = 14.0

     total cpu time spent up to now is       14.8 secs

     total energy              =     -53.00040167 Ry
     Harris-Foulkes estimate   =     -75.00195443 Ry
     estimated scf accuracy    <      34.39646882 Ry

     iteration #  2     ecut=    90.00 Ry     beta= 0.50
     Davidson diagonalization with overlap
     ethr =  1.00E-02,  avg # of iterations =  4.0

     total cpu time spent up to now is       21.7 secs

     total energy              =     -67.37941707 Ry
     Harris-Foulkes estimate   =     -71.70581339 Ry
     estimated scf accuracy    <       8.86534200 Ry

     iteration #  3     ecut=    90.00 Ry     beta= 0.50
     Davidson diagonalization with overlap
     ethr =  1.00E-02,  avg # of iterations =  2.0

     total cpu time spent up to now is       26.6 secs

     total energy              =     -67.99595755 Ry
     Harris-Foulkes estimate   =     -68.29449375 Ry
     estimated scf accuracy    <       1.08747724 Ry

     iteration #  4     ecut=    90.00 Ry     beta= 0.50
     Davidson diagonalization with overlap
     ethr =  3.40E-03,  avg # of iterations =  1.0

     total cpu time spent up to now is       30.7 secs

     total energy              =     -67.64657680 Ry
     Harris-Foulkes estimate   =     -68.01824583 Ry
     estimated scf accuracy    <       0.58087596 Ry

     iteration #  5     ecut=    90.00 Ry     beta= 0.50
     Davidson diagonalization with overlap
     ethr =  1.82E-03,  avg # of iterations =  2.0

     total cpu time spent up to now is       35.5 secs

     total energy              =     -67.74073862 Ry
     Harris-Foulkes estimate   =     -67.74635806 Ry
     estimated scf accuracy    <       0.01793290 Ry

     iteration #  6     ecut=    90.00 Ry     beta= 0.50
     Davidson diagonalization with overlap
     ethr =  5.60E-05,  avg # of iterations =  2.0

     total cpu time spent up to now is       40.7 secs

     total energy              =     -67.73864171 Ry
     Harris-Foulkes estimate   =     -67.74886698 Ry
     estimated scf accuracy    <       0.01790524 Ry

     iteration #  7     ecut=    90.00 Ry     beta= 0.50
     Davidson diagonalization with overlap
     ethr =  5.60E-05,  avg # of iterations =  2.0

     total cpu time spent up to now is       45.7 secs

     total energy              =     -67.74271141 Ry
     Harris-Foulkes estimate   =     -67.74269570 Ry
     estimated scf accuracy    <       0.00038477 Ry

     iteration #  8     ecut=    90.00 Ry     beta= 0.50
     Davidson diagonalization with overlap
     ethr =  1.20E-06,  avg # of iterations =  2.0

     negative rho (up, down):  8.466E-04 0.000E+00

     total cpu time spent up to now is       50.9 secs

     total energy              =     -67.74284280 Ry
     Harris-Foulkes estimate   =     -67.74279805 Ry
     estimated scf accuracy    <       0.00009673 Ry

     iteration #  9     ecut=    90.00 Ry     beta= 0.50
     Davidson diagonalization with overlap
     ethr =  3.02E-07,  avg # of iterations =  2.0

     negative rho (up, down):  2.529E-04 0.000E+00

     total cpu time spent up to now is       55.4 secs

     total energy              =     -67.74282458 Ry
     Harris-Foulkes estimate   =     -67.74285225 Ry
     estimated scf accuracy    <       0.00006193 Ry

     iteration # 10     ecut=    90.00 Ry     beta= 0.50
     Davidson diagonalization with overlap
     ethr =  1.94E-07,  avg # of iterations =  2.0

     total cpu time spent up to now is       60.7 secs

     total energy              =     -67.74283342 Ry
     Harris-Foulkes estimate   =     -67.74283449 Ry
     estimated scf accuracy    <       0.00000406 Ry

     iteration # 11     ecut=    90.00 Ry     beta= 0.50
     Davidson diagonalization with overlap
     ethr =  1.27E-08,  avg # of iterations =  2.0

     negative rho (up, down):  2.467E-08 0.000E+00

     total cpu time spent up to now is       65.7 secs

     total energy              =     -67.74283352 Ry
     Harris-Foulkes estimate   =     -67.74283427 Ry
     estimated scf accuracy    <       0.00000140 Ry

     iteration # 12     ecut=    90.00 Ry     beta= 0.50
     Davidson diagonalization with overlap
     ethr =  4.38E-09,  avg # of iterations =  2.0

     total cpu time spent up to now is       70.8 secs

     total energy              =     -67.74283377 Ry
     Harris-Foulkes estimate   =     -67.74283377 Ry
     estimated scf accuracy    <       0.00000003 Ry

     iteration # 13     ecut=    90.00 Ry     beta= 0.50
     Davidson diagonalization with overlap
     ethr =  9.91E-11,  avg # of iterations =  3.0

     total cpu time spent up to now is       76.9 secs

     total energy              =     -67.74283378 Ry
     Harris-Foulkes estimate   =     -67.74283379 Ry
     estimated scf accuracy    <       0.00000001 Ry

     iteration # 14     ecut=    90.00 Ry     beta= 0.50
     Davidson diagonalization with overlap
     ethr =  4.30E-11,  avg # of iterations =  2.0

     total cpu time spent up to now is       81.4 secs

     total energy              =     -67.74283378 Ry
     Harris-Foulkes estimate   =     -67.74283378 Ry
     estimated scf accuracy    <          3.7E-09 Ry

     iteration # 15     ecut=    90.00 Ry     beta= 0.50
     Davidson diagonalization with overlap
     ethr =  1.14E-11,  avg # of iterations =  2.0

     total cpu time spent up to now is       86.8 secs

     total energy              =     -67.74283378 Ry
     Harris-Foulkes estimate   =     -67.74283378 Ry
     estimated scf accuracy    <          3.5E-10 Ry

     iteration # 16     ecut=    90.00 Ry     beta= 0.50
     Davidson diagonalization with overlap
     ethr =  1.08E-12,  avg # of iterations =  2.0

     total cpu time spent up to now is       91.7 secs

     End of self-consistent calculation

          k = 0.0000 0.0000 0.0000 (115313 PWs)   bands (ev):

   -16.9916 -15.8162 -15.8148 -15.8137 -10.3584  -9.3430  -9.3418  -9.3415
    -8.9362  -8.9355  -8.4497  -8.4491  -8.4484  -6.3112  -6.3101  -6.3091

     highest occupied level (ev):    -6.3091

!    total energy              =     -67.74283378 Ry
     Harris-Foulkes estimate   =     -67.74283378 Ry
     estimated scf accuracy    <          1.5E-11 Ry

     The total energy is the sum of the following terms:

     one-electron contribution =    -222.50945404 Ry
     hartree contribution      =     115.41643926 Ry
     xc contribution           =     -25.13111187 Ry
     ewald contribution        =      64.48129287 Ry

     convergence has been achieved in  16 iterations

     Forces acting on atoms (cartesian axes, Ry/au):

     atom    1 type  3   force =    -0.00009979    0.00003570   -0.00007122
     atom    2 type  2   force =     0.00421809    0.00072714    0.00732343
     atom    3 type  2   force =    -0.00413461   -0.00728139   -0.00008794
     atom    4 type  2   force =    -0.00561105    0.00604593   -0.00075418
     atom    5 type  2   force =     0.00557046    0.00060091   -0.00615241
     atom    6 type  1   force =    -0.00514421   -0.00740943   -0.00248335
     atom    7 type  1   force =    -0.00678729    0.00584723   -0.00299632
     atom    8 type  1   force =     0.00397123    0.00014814   -0.00851367
     atom    9 type  1   force =     0.00662437    0.00273056   -0.00621269
     atom   10 type  1   force =    -0.00412537    0.00831079   -0.00061510
     atom   11 type  1   force =     0.00526017    0.00307254    0.00708935
     atom   12 type  1   force =     0.00581543   -0.00120758    0.00734519
     atom   13 type  1   force =    -0.00204203   -0.00910423    0.00004312
     atom   14 type  1   force =     0.00705472   -0.00155084   -0.00598025
     atom   15 type  1   force =     0.00217722    0.00060933    0.00892958
     atom   16 type  1   force =    -0.00710148    0.00584408    0.00132888
     atom   17 type  1   force =    -0.00564585   -0.00741888    0.00180756

     Total force =     0.036529     Total SCF correction =     0.000005

     Writing output data file TMS.save/
 
     init_run     :      4.32s CPU      5.18s WALL (       1 calls)
     electrons    :     85.16s CPU     86.55s WALL (       1 calls)
     forces       :      0.63s CPU      0.64s WALL (       1 calls)

     Called by init_run:
     wfcinit      :      2.50s CPU      3.22s WALL (       1 calls)
     potinit      :      0.91s CPU      0.99s WALL (       1 calls)
     hinit0       :      0.24s CPU      0.27s WALL (       1 calls)

     Called by electrons:
     c_bands      :     54.64s CPU     55.65s WALL (      16 calls)
     sum_band     :     12.52s CPU     12.68s WALL (      16 calls)
     v_of_rho     :     13.23s CPU     13.40s WALL (      17 calls)
     mix_rho      :      5.08s CPU      5.15s WALL (      16 calls)

     Called by c_bands:
     init_us_2    :      0.25s CPU      0.27s WALL (      33 calls)
     cegterg      :     54.41s CPU     55.42s WALL (      16 calls)

     Called by sum_band:

     Called by *egterg:
     h_psi        :     53.69s CPU     55.29s WALL (      63 calls)
     g_psi        :      0.15s CPU      0.15s WALL (      46 calls)
     cdiaghg      :      0.03s CPU      0.05s WALL (      62 calls)

     Called by h_psi:
     h_psi:pot    :     53.36s CPU     54.93s WALL (      63 calls)
     h_psi:calbec :      0.21s CPU      0.21s WALL (      63 calls)
     vloc_psi     :     52.83s CPU     54.40s WALL (      63 calls)
     add_vuspsi   :      0.31s CPU      0.31s WALL (      63 calls)

     General routines
     calbec       :      0.22s CPU      0.23s WALL (      67 calls)
     fft          :     10.68s CPU     10.81s WALL (     171 calls)
     ffts         :      0.92s CPU      0.92s WALL (      16 calls)
     fftw         :     50.76s CPU     52.15s WALL (    1922 calls)
 
     Parallel routines
     fft_scatt_xy :     11.67s CPU     11.99s WALL (    2109 calls)
     fft_scatt_yz :     21.58s CPU     22.11s WALL (    2109 calls)
 
     PWSCF        :   1m30.23s CPU   1m32.55s WALL

 
   This run was terminated on:  12:21:33  24Jul2019            

=------------------------------------------------------------------------------=
   JOB DONE.
=------------------------------------------------------------------------------=
