
     Program PWSCF v.6.4.1 starts on 24Jul2019 at 15:45:53 

     This program is part of the open-source Quantum ESPRESSO suite
     for quantum simulation of materials; please cite
         "P. Giannozzi et al., J. Phys.:Condens. Matter 21 395502 (2009);
         "P. Giannozzi et al., J. Phys.:Condens. Matter 29 465901 (2017);
          URL http://www.quantum-espresso.org", 
     in publications or presentations arising from this work. More details at
     http://www.quantum-espresso.org/quote

     Parallel version (MPI), running on     4 processors

     MPI processes distributed on     1 nodes
     R & G space division:  proc/nbgrp/npool/nimage =       4
     Reading input from si.0_scf.in

     Current dimensions of program PWSCF are:
     Max number of different atomic species (ntypx) = 10
     Max number of k-points (npk) =  40000
     Max angular momentum in pseudopotentials (lmaxx) =  3

     Subspace diagonalization in iterative solution of the eigenvalue problem:
     a serial algorithm will be used

 
     Parallelization info
     --------------------
     sticks:   dense  smooth     PW     G-vecs:    dense   smooth      PW
     Min         297     148     46                 6828     2394     420
     Max         298     150     47                 6831     2395     423
     Sum        1189     595    187                27317     9577    1687
 


     bravais-lattice index     =            2
     lattice parameter (alat)  =      10.4109  a.u.
     unit-cell volume          =     282.1019 (a.u.)^3
     number of atoms/cell      =            2
     number of atomic types    =            1
     number of electrons       =         8.00
     number of Kohn-Sham states=            8
     kinetic-energy cutoff     =      40.0000  Ry
     charge density cutoff     =     320.0000  Ry
     convergence threshold     =      1.0E-08
     mixing beta               =       0.7000
     number of iterations used =            8  plain     mixing
     Exchange-correlation      = PBE ( 1  4  3  4 0 0)

     celldm(1)=  10.410909  celldm(2)=   0.000000  celldm(3)=   0.000000
     celldm(4)=   0.000000  celldm(5)=   0.000000  celldm(6)=   0.000000

     crystal axes: (cart. coord. in units of alat)
               a(1) = (  -0.500000   0.000000   0.500000 )  
               a(2) = (   0.000000   0.500000   0.500000 )  
               a(3) = (  -0.500000   0.500000   0.000000 )  

     reciprocal axes: (cart. coord. in units 2 pi/alat)
               b(1) = ( -1.000000 -1.000000  1.000000 )  
               b(2) = (  1.000000  1.000000  1.000000 )  
               b(3) = ( -1.000000  1.000000 -1.000000 )  


     PseudoPot. # 1 for Si read from file:
     /home/bngjn/qe/SSSP_precision_pseudos/Si.pbe-n-rrkjus_psl.1.0.0.UPF
     MD5 check sum: 0b0bb1205258b0d07b9f9672cf965d36
     Pseudo is Ultrasoft + core correction, Zval =  4.0
     Generated using "atomic" code by A. Dal Corso v.5.1
     Using radial grid of 1141 points,  6 beta functions with: 
                l(1) =   0
                l(2) =   0
                l(3) =   1
                l(4) =   1
                l(5) =   2
                l(6) =   2
     Q(r) pseudized with 0 coefficients 


     atomic species   valence    mass     pseudopotential
        Si             4.00    28.08550     Si( 1.00)

     48 Sym. Ops., with inversion, found (24 have fractional translation)



   Cartesian axes

     site n.     atom                  positions (alat units)
         1           Si  tau(   1) = (   0.0000000   0.0000000   0.0000000  )
         2           Si  tau(   2) = (   0.2500000   0.2500000   0.2500000  )

     number of k points=    29
                       cart. coord. in units 2pi/alat
        k(    1) = (   0.0000000   0.0000000   0.0000000), wk =   0.0039062
        k(    2) = (  -0.1250000   0.1250000  -0.1250000), wk =   0.0312500
        k(    3) = (  -0.2500000   0.2500000  -0.2500000), wk =   0.0312500
        k(    4) = (  -0.3750000   0.3750000  -0.3750000), wk =   0.0312500
        k(    5) = (   0.5000000  -0.5000000   0.5000000), wk =   0.0156250
        k(    6) = (   0.0000000   0.2500000   0.0000000), wk =   0.0234375
        k(    7) = (  -0.1250000   0.3750000  -0.1250000), wk =   0.0937500
        k(    8) = (  -0.2500000   0.5000000  -0.2500000), wk =   0.0937500
        k(    9) = (   0.6250000  -0.3750000   0.6250000), wk =   0.0937500
        k(   10) = (   0.5000000  -0.2500000   0.5000000), wk =   0.0937500
        k(   11) = (   0.3750000  -0.1250000   0.3750000), wk =   0.0937500
        k(   12) = (   0.2500000   0.0000000   0.2500000), wk =   0.0468750
        k(   13) = (   0.0000000   0.5000000   0.0000000), wk =   0.0234375
        k(   14) = (  -0.1250000   0.6250000  -0.1250000), wk =   0.0937500
        k(   15) = (   0.7500000  -0.2500000   0.7500000), wk =   0.0937500
        k(   16) = (   0.6250000  -0.1250000   0.6250000), wk =   0.0937500
        k(   17) = (   0.5000000   0.0000000   0.5000000), wk =   0.0468750
        k(   18) = (   0.0000000   0.7500000   0.0000000), wk =   0.0234375
        k(   19) = (   0.8750000  -0.1250000   0.8750000), wk =   0.0937500
        k(   20) = (   0.7500000   0.0000000   0.7500000), wk =   0.0468750
        k(   21) = (   0.0000000  -1.0000000   0.0000000), wk =   0.0117188
        k(   22) = (  -0.2500000   0.5000000   0.0000000), wk =   0.0937500
        k(   23) = (   0.6250000  -0.3750000   0.8750000), wk =   0.1875000
        k(   24) = (   0.5000000  -0.2500000   0.7500000), wk =   0.0937500
        k(   25) = (   0.7500000  -0.2500000   1.0000000), wk =   0.0937500
        k(   26) = (   0.6250000  -0.1250000   0.8750000), wk =   0.1875000
        k(   27) = (   0.5000000   0.0000000   0.7500000), wk =   0.0937500
        k(   28) = (  -0.2500000  -1.0000000   0.0000000), wk =   0.0468750
        k(   29) = (  -0.5000000  -1.0000000   0.0000000), wk =   0.0234375

     Dense  grid:    27317 G-vectors     FFT dimensions: (  48,  48,  48)

     Smooth grid:     9577 G-vectors     FFT dimensions: (  32,  32,  32)

     Estimated max dynamical RAM per process >      27.94 MB

     Estimated total dynamical RAM >     111.76 MB

     Initial potential from superposition of free atoms

     starting charge    7.99888, renormalised to    8.00000
     Starting wfcs are    8 randomized atomic wfcs

     total cpu time spent up to now is        1.2 secs

     Self-consistent Calculation

     iteration #  1     ecut=    40.00 Ry     beta= 0.70
     Davidson diagonalization with overlap
     ethr =  1.00E-02,  avg # of iterations =  3.6

     Threshold (ethr) on eigenvalues was too large:
     Diagonalizing with lowered threshold

     Davidson diagonalization with overlap
     ethr =  6.64E-04,  avg # of iterations =  1.3

     total cpu time spent up to now is        1.9 secs

     total energy              =     -22.83737271 Ry
     Harris-Foulkes estimate   =     -22.84932975 Ry
     estimated scf accuracy    <       0.05260063 Ry

     iteration #  2     ecut=    40.00 Ry     beta= 0.70
     Davidson diagonalization with overlap
     ethr =  6.58E-04,  avg # of iterations =  1.0

     total cpu time spent up to now is        2.2 secs

     total energy              =     -22.83931859 Ry
     Harris-Foulkes estimate   =     -22.83943767 Ry
     estimated scf accuracy    <       0.00219306 Ry

     iteration #  3     ecut=    40.00 Ry     beta= 0.70
     Davidson diagonalization with overlap
     ethr =  2.74E-05,  avg # of iterations =  2.8

     total cpu time spent up to now is        2.7 secs

     total energy              =     -22.83944041 Ry
     Harris-Foulkes estimate   =     -22.83943815 Ry
     estimated scf accuracy    <       0.00003957 Ry

     iteration #  4     ecut=    40.00 Ry     beta= 0.70
     Davidson diagonalization with overlap
     ethr =  4.95E-07,  avg # of iterations =  2.8

     total cpu time spent up to now is        3.2 secs

     total energy              =     -22.83945230 Ry
     Harris-Foulkes estimate   =     -22.83945215 Ry
     estimated scf accuracy    <       0.00000018 Ry

     iteration #  5     ecut=    40.00 Ry     beta= 0.70
     Davidson diagonalization with overlap
     ethr =  2.23E-09,  avg # of iterations =  2.5

     total cpu time spent up to now is        3.6 secs

     End of self-consistent calculation

          k = 0.0000 0.0000 0.0000 (  1243 PWs)   bands (ev):

    -5.9092   5.7616   5.7616   5.7616   8.3056   8.3056   8.3056   8.6343

          k =-0.1250 0.1250-0.1250 (  1218 PWs)   bands (ev):

    -5.7126   4.1726   5.4848   5.4848   8.1291   8.7128   8.7128  10.1033

          k =-0.2500 0.2500-0.2500 (  1215 PWs)   bands (ev):

    -5.1400   1.9090   5.0290   5.0290   7.6393   9.2314   9.2314  12.3276

          k =-0.3750 0.3750-0.3750 (  1203 PWs)   bands (ev):

    -4.2855  -0.0391   4.7098   4.7098   7.2751   9.2144   9.2144  13.5470

          k = 0.5000-0.5000 0.5000 (  1194 PWs)   bands (ev):

    -3.6852  -1.0125   4.6001   4.6001   7.1472   9.1192   9.1192  13.4374

          k = 0.0000 0.2500 0.0000 (  1219 PWs)   bands (ev):

    -5.6463   4.3838   4.9932   4.9932   7.7764   9.3967   9.3967   9.7773

          k =-0.1250 0.3750-0.1250 (  1217 PWs)   bands (ev):

    -5.1953   2.5663   4.4994   4.5508   7.8998   9.2885  10.1441  10.4856

          k =-0.2500 0.5000-0.2500 (  1205 PWs)   bands (ev):

    -4.4140   0.5838   3.9749   4.2372   7.9630   9.2992  10.1779  11.1740

          k = 0.6250-0.3750 0.6250 (  1204 PWs)   bands (ev):

    -3.5981  -0.8130   3.5462   4.2565   7.8842   9.2242   9.8466  12.9969

          k = 0.5000-0.2500 0.5000 (  1199 PWs)   bands (ev):

    -3.8280  -0.4614   3.3776   4.5388   8.0156   9.3548   9.6186  13.4903

          k = 0.3750-0.1250 0.3750 (  1209 PWs)   bands (ev):

    -4.7073   1.2168   3.5358   5.0103   8.3423   9.4020   9.5756  11.8763

          k = 0.2500 0.0000 0.2500 (  1217 PWs)   bands (ev):

    -5.3890   3.0890   4.2090   5.4736   8.6398   8.8495   9.0624  11.0587

          k = 0.0000 0.5000 0.0000 (  1198 PWs)   bands (ev):

    -4.8672   2.2337   3.9506   3.9506   6.9322   8.8947  11.3789  11.3789

          k =-0.1250 0.6250-0.1250 (  1216 PWs)   bands (ev):

    -4.1849   0.8639   3.1993   3.6422   7.1511   8.6707  11.5751  11.9025

          k = 0.7500-0.2500 0.7500 (  1209 PWs)   bands (ev):

    -3.3019  -0.5102   2.3670   3.6428   7.3235  10.1758  11.3024  11.5936

          k = 0.6250-0.1250 0.6250 (  1198 PWs)   bands (ev):

    -3.1119  -0.7516   1.9309   3.9471   7.6261  11.0950  11.1624  12.5669

          k = 0.5000 0.0000 0.5000 (  1203 PWs)   bands (ev):

    -3.9469   0.3555   2.1721   4.4814   8.1809  10.4624  10.7964  11.6857

          k = 0.0000 0.7500 0.0000 (  1206 PWs)   bands (ev):

    -3.6040   0.0749   3.2582   3.2582   6.4467   7.3735  13.5868  13.5869

          k = 0.8750-0.1250 0.8750 (  1205 PWs)   bands (ev):

    -2.7434  -0.9725   2.4765   3.1838   6.7287   7.7641  13.8356  13.8556

          k = 0.7500 0.0000 0.7500 (  1202 PWs)   bands (ev):

    -2.3358  -1.3462   1.6584   3.4309   7.0253   9.8567  13.0431  13.6718

          k = 0.0000-1.0000 0.0000 (  1186 PWs)   bands (ev):

    -1.9205  -1.9205   3.0206   3.0206   6.5552   6.5552  15.4987  15.4987

          k =-0.2500 0.5000 0.0000 (  1216 PWs)   bands (ev):

    -4.6303   1.5067   3.1667   4.3856   8.1979   9.4971   9.9799  11.1378

          k = 0.6250-0.3750 0.8750 (  1205 PWs)   bands (ev):

    -3.7804   0.0198   2.5667   3.9119   8.6074   9.2642  10.6948  11.5818

          k = 0.5000-0.2500 0.7500 (  1198 PWs)   bands (ev):

    -3.1648  -0.8738   2.4328   3.6954   8.7341   8.9239  11.5379  12.7831

          k = 0.7500-0.2500 1.0000 (  1210 PWs)   bands (ev):

    -3.4161  -0.1365   2.5439   3.1246   7.7250   8.4320  11.3729  13.5400

          k = 0.6250-0.1250 0.8750 (  1203 PWs)   bands (ev):

    -2.5843  -1.0651   1.8819   2.9335   8.1624  10.0193  10.9041  13.0167

          k = 0.5000 0.0000 0.7500 (  1203 PWs)   bands (ev):

    -2.9208  -0.7128   1.7241   3.2909   8.6201  10.2447  10.8754  12.6529

          k =-0.2500-1.0000 0.0000 (  1196 PWs)   bands (ev):

    -1.8509  -1.8509   2.4954   2.4954   7.7627   7.7627  13.4105  13.4105

          k =-0.5000-1.0000 0.0000 (  1216 PWs)   bands (ev):

    -1.7751  -1.7751   2.0879   2.0879  10.0380  10.0380  10.6112  10.6112

     highest occupied, lowest unoccupied level (ev):     5.7616    6.4467

!    total energy              =     -22.83945243 Ry
     Harris-Foulkes estimate   =     -22.83945242 Ry
     estimated scf accuracy    <          9.6E-09 Ry

     The total energy is the sum of the following terms:

     one-electron contribution =       4.83570315 Ry
     hartree contribution      =       1.13970685 Ry
     xc contribution           =     -12.25746734 Ry
     ewald contribution        =     -16.55739508 Ry

     convergence has been achieved in   5 iterations

     Writing output data file si.save/
 
     init_run     :      0.28s CPU      0.36s WALL (       1 calls)
     electrons    :      2.08s CPU      2.45s WALL (       1 calls)

     Called by init_run:
     wfcinit      :      0.06s CPU      0.07s WALL (       1 calls)
     potinit      :      0.03s CPU      0.03s WALL (       1 calls)
     hinit0       :      0.12s CPU      0.14s WALL (       1 calls)

     Called by electrons:
     c_bands      :      1.29s CPU      1.48s WALL (       6 calls)
     sum_band     :      0.42s CPU      0.48s WALL (       6 calls)
     v_of_rho     :      0.19s CPU      0.23s WALL (       6 calls)
     newd         :      0.15s CPU      0.22s WALL (       6 calls)
     mix_rho      :      0.02s CPU      0.02s WALL (       6 calls)

     Called by c_bands:
     init_us_2    :      0.05s CPU      0.06s WALL (     377 calls)
     cegterg      :      1.06s CPU      1.22s WALL (     174 calls)

     Called by sum_band:
     sum_band:bec :      0.00s CPU      0.00s WALL (     174 calls)
     addusdens    :      0.16s CPU      0.19s WALL (       6 calls)

     Called by *egterg:
     h_psi        :      0.87s CPU      0.97s WALL (     607 calls)
     s_psi        :      0.03s CPU      0.03s WALL (     607 calls)
     g_psi        :      0.00s CPU      0.00s WALL (     404 calls)
     cdiaghg      :      0.09s CPU      0.12s WALL (     549 calls)

     Called by h_psi:
     h_psi:pot    :      0.86s CPU      0.96s WALL (     607 calls)
     h_psi:calbec :      0.08s CPU      0.09s WALL (     607 calls)
     vloc_psi     :      0.75s CPU      0.84s WALL (     607 calls)
     add_vuspsi   :      0.03s CPU      0.04s WALL (     607 calls)

     General routines
     calbec       :      0.09s CPU      0.11s WALL (     781 calls)
     fft          :      0.12s CPU      0.17s WALL (      77 calls)
     ffts         :      0.00s CPU      0.00s WALL (      12 calls)
     fftw         :      0.75s CPU      0.85s WALL (    8868 calls)
     interpolate  :      0.01s CPU      0.01s WALL (       6 calls)
 
     Parallel routines
     fft_scatt_xy :      0.14s CPU      0.15s WALL (    8957 calls)
     fft_scatt_yz :      0.38s CPU      0.46s WALL (    8957 calls)
 
     PWSCF        :      3.16s CPU      3.67s WALL

 
   This run was terminated on:  15:45:57  24Jul2019            

=------------------------------------------------------------------------------=
   JOB DONE.
=------------------------------------------------------------------------------=
