
     Program PWSCF v.6.4.1 starts on 24Jul2019 at 15:46:33 

     This program is part of the open-source Quantum ESPRESSO suite
     for quantum simulation of materials; please cite
         "P. Giannozzi et al., J. Phys.:Condens. Matter 21 395502 (2009);
         "P. Giannozzi et al., J. Phys.:Condens. Matter 29 465901 (2017);
          URL http://www.quantum-espresso.org", 
     in publications or presentations arising from this work. More details at
     http://www.quantum-espresso.org/quote

     Parallel version (MPI), running on     4 processors

     MPI processes distributed on     1 nodes
     R & G space division:  proc/nbgrp/npool/nimage =       4
     Reading input from si.1_nscf.in

     Current dimensions of program PWSCF are:
     Max number of different atomic species (ntypx) = 10
     Max number of k-points (npk) =  40000
     Max angular momentum in pseudopotentials (lmaxx) =  3

     Atomic positions and unit cell read from directory:
     ./outdir/si.save/
 

     Subspace diagonalization in iterative solution of the eigenvalue problem:
     a serial algorithm will be used

 
     Parallelization info
     --------------------
     sticks:   dense  smooth     PW     G-vecs:    dense   smooth      PW
     Min         297     148     49                 6828     2394     439
     Max         298     150     50                 6831     2395     440
     Sum        1189     595    199                27317     9577    1759
 


     bravais-lattice index     =            2
     lattice parameter (alat)  =      10.4109  a.u.
     unit-cell volume          =     282.1019 (a.u.)^3
     number of atoms/cell      =            2
     number of atomic types    =            1
     number of electrons       =         8.00
     number of Kohn-Sham states=            8
     kinetic-energy cutoff     =      40.0000  Ry
     charge density cutoff     =     320.0000  Ry
     Exchange-correlation      = PBE ( 1  4  3  4 0 0)

     celldm(1)=  10.410909  celldm(2)=   0.000000  celldm(3)=   0.000000
     celldm(4)=   0.000000  celldm(5)=   0.000000  celldm(6)=   0.000000

     crystal axes: (cart. coord. in units of alat)
               a(1) = (  -0.500000   0.000000   0.500000 )  
               a(2) = (   0.000000   0.500000   0.500000 )  
               a(3) = (  -0.500000   0.500000   0.000000 )  

     reciprocal axes: (cart. coord. in units 2 pi/alat)
               b(1) = ( -1.000000 -1.000000  1.000000 )  
               b(2) = (  1.000000  1.000000  1.000000 )  
               b(3) = ( -1.000000  1.000000 -1.000000 )  


     PseudoPot. # 1 for Si read from file:
     /home/bngjn/qe/SSSP_precision_pseudos/Si.pbe-n-rrkjus_psl.1.0.0.UPF
     MD5 check sum: 0b0bb1205258b0d07b9f9672cf965d36
     Pseudo is Ultrasoft + core correction, Zval =  4.0
     Generated using "atomic" code by A. Dal Corso v.5.1
     Using radial grid of 1141 points,  6 beta functions with: 
                l(1) =   0
                l(2) =   0
                l(3) =   1
                l(4) =   1
                l(5) =   2
                l(6) =   2
     Q(r) pseudized with 0 coefficients 


     atomic species   valence    mass     pseudopotential
        Si             4.00    28.08550     Si( 1.00)

     48 Sym. Ops., with inversion, found (24 have fractional translation)



   Cartesian axes

     site n.     atom                  positions (alat units)
         1           Si  tau(   1) = (   0.0000000   0.0000000   0.0000000  )
         2           Si  tau(   2) = (   0.2500000   0.2500000   0.2500000  )

     number of k points=    72 (tetrahedron method)
                       cart. coord. in units 2pi/alat
        k(    1) = (   0.0000000   0.0000000   0.0000000), wk =   0.0011574
        k(    2) = (  -0.0833333   0.0833333  -0.0833333), wk =   0.0092593
        k(    3) = (  -0.1666667   0.1666667  -0.1666667), wk =   0.0092593
        k(    4) = (  -0.2500000   0.2500000  -0.2500000), wk =   0.0092593
        k(    5) = (  -0.3333333   0.3333333  -0.3333333), wk =   0.0092593
        k(    6) = (  -0.4166667   0.4166667  -0.4166667), wk =   0.0092593
        k(    7) = (   0.5000000  -0.5000000   0.5000000), wk =   0.0046296
        k(    8) = (   0.0000000   0.1666667   0.0000000), wk =   0.0069444
        k(    9) = (  -0.0833333   0.2500000  -0.0833333), wk =   0.0277778
        k(   10) = (  -0.1666667   0.3333333  -0.1666667), wk =   0.0277778
        k(   11) = (  -0.2500000   0.4166667  -0.2500000), wk =   0.0277778
        k(   12) = (  -0.3333333   0.5000000  -0.3333333), wk =   0.0277778
        k(   13) = (   0.5833333  -0.4166667   0.5833333), wk =   0.0277778
        k(   14) = (   0.5000000  -0.3333333   0.5000000), wk =   0.0277778
        k(   15) = (   0.4166667  -0.2500000   0.4166667), wk =   0.0277778
        k(   16) = (   0.3333333  -0.1666667   0.3333333), wk =   0.0277778
        k(   17) = (   0.2500000  -0.0833333   0.2500000), wk =   0.0277778
        k(   18) = (   0.1666667  -0.0000000   0.1666667), wk =   0.0138889
        k(   19) = (   0.0000000   0.3333333   0.0000000), wk =   0.0069444
        k(   20) = (  -0.0833333   0.4166667  -0.0833333), wk =   0.0277778
        k(   21) = (  -0.1666667   0.5000000  -0.1666667), wk =   0.0277778
        k(   22) = (  -0.2500000   0.5833333  -0.2500000), wk =   0.0277778
        k(   23) = (   0.6666667  -0.3333333   0.6666667), wk =   0.0277778
        k(   24) = (   0.5833333  -0.2500000   0.5833333), wk =   0.0277778
        k(   25) = (   0.5000000  -0.1666667   0.5000000), wk =   0.0277778
        k(   26) = (   0.4166667  -0.0833333   0.4166667), wk =   0.0277778
        k(   27) = (   0.3333333   0.0000000   0.3333333), wk =   0.0138889
        k(   28) = (   0.0000000   0.5000000   0.0000000), wk =   0.0069444
        k(   29) = (  -0.0833333   0.5833333  -0.0833333), wk =   0.0277778
        k(   30) = (  -0.1666667   0.6666667  -0.1666667), wk =   0.0277778
        k(   31) = (   0.7500000  -0.2500000   0.7500000), wk =   0.0277778
        k(   32) = (   0.6666667  -0.1666667   0.6666667), wk =   0.0277778
        k(   33) = (   0.5833333  -0.0833333   0.5833333), wk =   0.0277778
        k(   34) = (   0.5000000   0.0000000   0.5000000), wk =   0.0138889
        k(   35) = (   0.0000000   0.6666667   0.0000000), wk =   0.0069444
        k(   36) = (  -0.0833333   0.7500000  -0.0833333), wk =   0.0277778
        k(   37) = (   0.8333333  -0.1666667   0.8333333), wk =   0.0277778
        k(   38) = (   0.7500000  -0.0833333   0.7500000), wk =   0.0277778
        k(   39) = (   0.6666667   0.0000000   0.6666667), wk =   0.0138889
        k(   40) = (   0.0000000   0.8333333   0.0000000), wk =   0.0069444
        k(   41) = (   0.9166667  -0.0833333   0.9166667), wk =   0.0277778
        k(   42) = (   0.8333333   0.0000000   0.8333333), wk =   0.0138889
        k(   43) = (   0.0000000  -1.0000000   0.0000000), wk =   0.0034722
        k(   44) = (  -0.1666667   0.3333333   0.0000000), wk =   0.0277778
        k(   45) = (  -0.2500000   0.4166667  -0.0833333), wk =   0.0555556
        k(   46) = (  -0.3333333   0.5000000  -0.1666667), wk =   0.0555556
        k(   47) = (   0.5833333  -0.4166667   0.7500000), wk =   0.0555556
        k(   48) = (   0.5000000  -0.3333333   0.6666667), wk =   0.0277778
        k(   49) = (  -0.1666667   0.5000000   0.0000000), wk =   0.0277778
        k(   50) = (  -0.2500000   0.5833333  -0.0833333), wk =   0.0555556
        k(   51) = (   0.6666667  -0.3333333   0.8333333), wk =   0.0555556
        k(   52) = (   0.5833333  -0.2500000   0.7500000), wk =   0.0555556
        k(   53) = (   0.5000000  -0.1666667   0.6666667), wk =   0.0555556
        k(   54) = (   0.4166667  -0.0833333   0.5833333), wk =   0.0555556
        k(   55) = (   0.3333333   0.0000000   0.5000000), wk =   0.0277778
        k(   56) = (  -0.1666667   0.6666667  -0.0000000), wk =   0.0277778
        k(   57) = (   0.7500000  -0.2500000   0.9166667), wk =   0.0555556
        k(   58) = (   0.6666667  -0.1666667   0.8333333), wk =   0.0555556
        k(   59) = (   0.5833333  -0.0833333   0.7500000), wk =   0.0555556
        k(   60) = (   0.5000000   0.0000000   0.6666667), wk =   0.0277778
        k(   61) = (   0.8333333  -0.1666667   1.0000000), wk =   0.0277778
        k(   62) = (   0.7500000  -0.0833333   0.9166667), wk =   0.0555556
        k(   63) = (   0.6666667   0.0000000   0.8333333), wk =   0.0277778
        k(   64) = (  -0.1666667  -1.0000000   0.0000000), wk =   0.0138889
        k(   65) = (   0.6666667  -0.3333333   1.0000000), wk =   0.0277778
        k(   66) = (   0.5833333  -0.2500000   0.9166667), wk =   0.0555556
        k(   67) = (   0.5000000  -0.1666667   0.8333333), wk =   0.0277778
        k(   68) = (   0.6666667  -0.1666667   1.0000000), wk =   0.0277778
        k(   69) = (   0.5833333  -0.0833333   0.9166667), wk =   0.0555556
        k(   70) = (   0.5000000   0.0000000   0.8333333), wk =   0.0277778
        k(   71) = (  -0.3333333  -1.0000000   0.0000000), wk =   0.0138889
        k(   72) = (  -0.5000000  -1.0000000   0.0000000), wk =   0.0069444

     Dense  grid:    27317 G-vectors     FFT dimensions: (  48,  48,  48)

     Smooth grid:     9577 G-vectors     FFT dimensions: (  32,  32,  32)

     Estimated max dynamical RAM per process >      24.89 MB

     Estimated total dynamical RAM >      99.57 MB

     The potential is recalculated from file :
     ./outdir/si.save/charge-density

     Starting wfcs are    8 randomized atomic wfcs

     Band Structure Calculation
     Davidson diagonalization with overlap

     ethr =  1.25E-10,  avg # of iterations = 18.4

     total cpu time spent up to now is        3.9 secs

     End of band structure calculation

          k = 0.0000 0.0000 0.0000 (  1243 PWs)   bands (ev):

    -5.9089   5.7619   5.7619   5.7619   8.3058   8.3058   8.3058   8.6347

          k =-0.0833 0.0833-0.0833 (  1236 PWs)   bands (ev):

    -5.8213   4.9005   5.6246   5.6246   8.2634   8.5080   8.5080   9.3951

          k =-0.1667 0.1667-0.1667 (  1215 PWs)   bands (ev):

    -5.5612   3.4097   5.3293   5.3293   7.9677   8.9301   8.9301  10.8516

          k =-0.2500 0.2500-0.2500 (  1215 PWs)   bands (ev):

    -5.1397   1.9093   5.0292   5.0292   7.6396   9.2316   9.2316  12.3280

          k =-0.3333 0.3333-0.3333 (  1218 PWs)   bands (ev):

    -4.5870   0.5503   4.7945   4.7945   7.3731   9.2586   9.2586  13.4410

          k =-0.4167 0.4167-0.4167 (  1191 PWs)   bands (ev):

    -3.9976  -0.5333   4.6493   4.6493   7.2047   9.1668   9.1668  13.5061

          k = 0.5000-0.5000 0.5000 (  1194 PWs)   bands (ev):

    -3.6850  -1.0122   4.6004   4.6004   7.1475   9.1193   9.1193  13.4379

          k = 0.0000 0.1667 0.0000 (  1227 PWs)   bands (ev):

    -5.7919   5.0317   5.3539   5.3539   8.0427   8.8579   8.8579   9.3185

          k =-0.0833 0.2500-0.0833 (  1213 PWs)   bands (ev):

    -5.5887   3.8361   5.0046   5.1703   8.0573   8.8420   9.3770  10.3738

          k =-0.1667 0.3333-0.1667 (  1208 PWs)   bands (ev):

    -5.2195   2.3819   4.7013   4.8544   8.1224   8.8735   9.7616  11.0692

          k =-0.2500 0.4167-0.2500 (  1211 PWs)   bands (ev):

    -4.7053   0.9953   4.4961   4.5113   7.9385   9.0191   9.8096  11.6611

          k =-0.3333 0.5000-0.3333 (  1211 PWs)   bands (ev):

    -4.1088  -0.1868   4.2247   4.4063   7.7615   9.0221   9.6412  12.6720

          k = 0.5833-0.4167 0.5833 (  1197 PWs)   bands (ev):

    -3.6471  -0.9187   4.0282   4.4332   7.6746   9.0381   9.4574  13.5723

          k = 0.5000-0.3333 0.5000 (  1201 PWs)   bands (ev):

    -3.7600  -0.7507   3.9395   4.5692   7.6953   9.1535   9.3495  13.6791

          k = 0.4167-0.2500 0.4167 (  1203 PWs)   bands (ev):

    -4.3103   0.1777   3.9707   4.7992   7.8232   9.3062   9.3473  13.0732

          k = 0.3333-0.1667 0.3333 (  1210 PWs)   bands (ev):

    -4.8915   1.4429   4.1310   5.0982   8.0461   9.2037   9.4698  12.0845

          k = 0.2500-0.0833 0.2500 (  1218 PWs)   bands (ev):

    -5.3609   2.8514   4.4322   5.4162   8.3303   8.8963   9.2284  11.2374

          k = 0.1667-0.0000 0.1667 (  1219 PWs)   bands (ev):

    -5.6759   4.1664   4.9416   5.6446   8.5387   8.5478   8.6864  10.2456

          k = 0.0000 0.3333 0.0000 (  1219 PWs)   bands (ev):

    -5.4426   3.6838   4.6225   4.6225   7.4822   9.8575  10.0150  10.0150

          k =-0.0833 0.4167-0.0833 (  1212 PWs)   bands (ev):

    -5.1278   2.6403   4.2746   4.2997   7.5002   9.5379  10.3793  10.5646

          k =-0.1667 0.5000-0.1667 (  1218 PWs)   bands (ev):

    -4.6589   1.3844   3.8305   4.0870   7.7310   9.6883  10.2526  10.7497

          k =-0.2500 0.5833-0.2500 (  1208 PWs)   bands (ev):

    -4.0776   0.2017   3.4038   4.0037   7.7721   9.8766  10.5990  10.7618

          k = 0.6667-0.3333 0.6667 (  1201 PWs)   bands (ev):

    -3.5254  -0.6873   3.0720   4.0530   7.7938   9.7649  10.3471  12.0683

          k = 0.5833-0.2500 0.5833 (  1202 PWs)   bands (ev):

    -3.4188  -0.8374   2.8694   4.2279   7.9182   9.7342  10.1291  13.5711

          k = 0.5000-0.1667 0.5000 (  1192 PWs)   bands (ev):

    -3.8895  -0.1175   2.8222   4.5099   8.1527   9.8040   9.9566  12.8488

          k = 0.4167-0.0833 0.4167 (  1207 PWs)   bands (ev):

    -4.4852   0.9781   2.9737   4.8624   8.4477   9.7113   9.8676  11.7091

          k = 0.3333 0.0000 0.3333 (  1209 PWs)   bands (ev):

    -4.9955   2.0772   3.4567   5.2115   8.6641   9.2708   9.5364  11.2520

          k = 0.0000 0.5000 0.0000 (  1198 PWs)   bands (ev):

    -4.8670   2.2340   3.9508   3.9508   6.9325   8.8950  11.3791  11.3791

          k =-0.0833 0.5833-0.0833 (  1218 PWs)   bands (ev):

    -4.4471   1.3564   3.5027   3.7123   7.0149   8.5632  11.6350  11.8592

          k =-0.1667 0.6667-0.1667 (  1204 PWs)   bands (ev):

    -3.8955   0.3712   2.8943   3.6075   7.2355   9.0103  11.4832  11.8464

          k = 0.7500-0.2500 0.7500 (  1209 PWs)   bands (ev):

    -3.3016  -0.5099   2.3673   3.6431   7.3237  10.1761  11.3027  11.5938

          k = 0.6667-0.1667 0.6667 (  1198 PWs)   bands (ev):

    -2.9987  -0.8987   2.0200   3.8148   7.4914  11.1136  11.3067  11.7590

          k = 0.5833-0.0833 0.5833 (  1195 PWs)   bands (ev):

    -3.3539  -0.4322   1.9126   4.1065   7.7928  10.9979  11.0726  12.7316

          k = 0.5000 0.0000 0.5000 (  1203 PWs)   bands (ev):

    -3.9466   0.3558   2.1724   4.4817   8.1811  10.4626  10.7968  11.6860

          k = 0.0000 0.6667 0.0000 (  1218 PWs)   bands (ev):

    -4.0755   0.7845   3.4411   3.4411   6.5505   7.8123  12.8369  12.8369

          k =-0.0833 0.7500-0.0833 (  1211 PWs)   bands (ev):

    -3.5617   0.0254   2.9807   3.3029   6.7118   7.6780  13.1270  13.2158

          k = 0.8333-0.1667 0.8333 (  1207 PWs)   bands (ev):

    -2.9602  -0.7146   2.2911   3.3079   6.8904   8.4888  13.0045  13.0617

          k = 0.7500-0.0833 0.7500 (  1202 PWs)   bands (ev):

    -2.5193  -1.1803   1.7421   3.4550   7.0598   9.8921  12.7163  12.8396

          k = 0.6667 0.0000 0.6667 (  1196 PWs)   bands (ev):

    -2.7827  -0.9015   1.5497   3.7316   7.3685  11.5184  12.0911  12.6198

          k = 0.0000 0.8333 0.0000 (  1198 PWs)   bands (ev):

    -3.0849  -0.6159   3.1268   3.1268   6.4102   7.0178  14.3416  14.3416

          k = 0.9167-0.0833 0.9167 (  1200 PWs)   bands (ev):

    -2.4958  -1.2796   2.7212   3.0940   6.6124   7.1630  14.5898  14.6482

          k = 0.8333 0.0000 0.8333 (  1202 PWs)   bands (ev):

    -2.0672  -1.6645   2.0902   3.2063   6.7680   8.3166  14.0484  14.4706

          k = 0.0000-1.0000 0.0000 (  1186 PWs)   bands (ev):

    -1.9202  -1.9202   3.0209   3.0209   6.5555   6.5555  15.4989  15.4989

          k =-0.1667 0.3333 0.0000 (  1210 PWs)   bands (ev):

    -5.3301   3.0394   4.2028   5.0735   8.0889   9.1321   9.8349  10.5833

          k =-0.2500 0.4167-0.0833 (  1212 PWs)   bands (ev):

    -4.9107   1.8417   3.6810   4.8103   8.3436   9.1343  10.2406  10.6297

          k =-0.3333 0.5000-0.1667 (  1207 PWs)   bands (ev):

    -4.3596   0.5926   3.4092   4.4984   8.3416   9.1049  10.3050  11.2474

          k = 0.5833-0.4167 0.7500 (  1204 PWs)   bands (ev):

    -3.7685  -0.4491   3.2781   4.2646   8.2595   8.9738  10.2371  12.4108

          k = 0.5000-0.3333 0.6667 (  1198 PWs)   bands (ev):

    -3.4514  -0.9203   3.2406   4.1781   8.2269   8.9092  10.1962  13.6598

          k =-0.1667 0.5000 0.0000 (  1220 PWs)   bands (ev):

    -4.7611   1.8582   3.5331   4.1958   7.5651   9.2519  10.4744  11.2658

          k =-0.2500 0.5833-0.0833 (  1208 PWs)   bands (ev):

    -4.2500   0.8482   3.0095   3.9232   7.8904   9.4772  10.2182  11.6493

          k = 0.6667-0.3333 0.8333 (  1204 PWs)   bands (ev):

    -3.6530  -0.1571   2.6562   3.7246   8.0105   9.9023  10.4856  11.6402

          k = 0.5833-0.2500 0.7500 (  1200 PWs)   bands (ev):

    -3.1846  -0.8247   2.4168   3.7075   8.1292   9.6381  11.5296  11.9248

          k = 0.5000-0.1667 0.6667 (  1200 PWs)   bands (ev):

    -3.3124  -0.6480   2.3076   3.8711   8.3584   9.4640  11.4376  12.3253

          k = 0.4167-0.0833 0.5833 (  1203 PWs)   bands (ev):

    -3.8722   0.1839   2.3900   4.1723   8.6838   9.3328  10.9464  11.4336

          k = 0.3333 0.0000 0.5000 (  1214 PWs)   bands (ev):

    -4.4487   1.1242   2.7978   4.5351   8.9372   9.0159  10.3971  10.9831

          k =-0.1667 0.6667-0.0000 (  1220 PWs)   bands (ev):

    -3.9816   0.6178   3.0422   3.4515   7.1877   8.2756  11.6669  12.7894

          k = 0.7500-0.2500 0.9167 (  1206 PWs)   bands (ev):

    -3.4016  -0.1874   2.4811   3.2460   7.5203   8.7763  11.3803  13.1485

          k = 0.6667-0.1667 0.8333 (  1198 PWs)   bands (ev):

    -2.8424  -0.8679   1.9834   3.2528   7.6718  10.0360  11.0911  13.0708

          k = 0.5833-0.0833 0.7500 (  1196 PWs)   bands (ev):

    -2.7785  -0.9321   1.7102   3.4418   7.9152  10.7500  11.7011  12.3227

          k = 0.5000 0.0000 0.6667 (  1194 PWs)   bands (ev):

    -3.2894  -0.3662   1.7949   3.7709   8.2829  10.3341  11.1599  12.4669

          k = 0.8333-0.1667 1.0000 (  1205 PWs)   bands (ev):

    -3.0123  -0.6533   2.7694   2.9598   7.0317   7.5496  13.0107  14.3315

          k = 0.7500-0.0833 0.9167 (  1198 PWs)   bands (ev):

    -2.4117  -1.2739   2.1785   2.9171   7.3222   8.4122  12.7070  14.1113

          k = 0.6667 0.0000 0.8333 (  1201 PWs)   bands (ev):

    -2.2730  -1.3766   1.7079   3.1056   7.5494   9.9000  12.2597  12.6451

          k =-0.1667-1.0000 0.0000 (  1204 PWs)   bands (ev):

    -1.8861  -1.8861   2.7365   2.7365   7.1413   7.1413  14.4251  14.4251

          k = 0.6667-0.3333 1.0000 (  1206 PWs)   bands (ev):

    -3.7092   0.1826   2.3472   3.5663   8.5968   9.4815   9.8801  12.6562

          k = 0.5833-0.2500 0.9167 (  1204 PWs)   bands (ev):

    -3.1142  -0.5564   2.0114   3.2477   8.9737   9.4842  10.4262  13.0766

          k = 0.5000-0.1667 0.8333 (  1198 PWs)   bands (ev):

    -2.7743  -0.9615   1.9187   3.1253   9.1390   9.2328  11.7732  12.1111

          k = 0.6667-0.1667 1.0000 (  1201 PWs)   bands (ev):

    -2.8117  -0.7944   2.1599   2.7565   8.4403   8.8543  11.0186  13.8495

          k = 0.5833-0.0833 0.9167 (  1204 PWs)   bands (ev):

    -2.3150  -1.2815   1.8640   2.6090   8.7807  10.0319  10.7377  12.1095

          k = 0.5000 0.0000 0.8333 (  1197 PWs)   bands (ev):

    -2.5379  -1.0578   1.7449   2.8229   9.0750  10.1897  10.6573  11.8643

          k =-0.3333-1.0000 0.0000 (  1200 PWs)   bands (ev):

    -1.8136  -1.8136   2.2825   2.2825   8.5154   8.5154  12.3672  12.3672

          k =-0.5000-1.0000 0.0000 (  1216 PWs)   bands (ev):

    -1.7748  -1.7748   2.0882   2.0882  10.0384  10.0384  10.6115  10.6115

     the Fermi energy is     6.1330 ev

     Writing output data file si.save/
 
     init_run     :      0.28s CPU      0.32s WALL (       1 calls)
     electrons    :      2.51s CPU      2.61s WALL (       1 calls)

     Called by init_run:
     wfcinit      :      0.00s CPU      0.00s WALL (       1 calls)
     potinit      :      0.05s CPU      0.06s WALL (       1 calls)
     hinit0       :      0.13s CPU      0.15s WALL (       1 calls)

     Called by electrons:
     c_bands      :      2.49s CPU      2.58s WALL (       1 calls)
     v_of_rho     :      0.05s CPU      0.05s WALL (       1 calls)
     newd         :      0.04s CPU      0.05s WALL (       1 calls)

     Called by c_bands:
     init_us_2    :      0.01s CPU      0.01s WALL (      72 calls)
     cegterg      :      2.26s CPU      2.33s WALL (      87 calls)

     Called by sum_band:

     Called by *egterg:
     h_psi        :      1.68s CPU      1.74s WALL (    1481 calls)
     s_psi        :      0.06s CPU      0.06s WALL (    1481 calls)
     g_psi        :      0.01s CPU      0.01s WALL (    1322 calls)
     cdiaghg      :      0.24s CPU      0.25s WALL (    1394 calls)

     Called by h_psi:
     h_psi:pot    :      1.67s CPU      1.72s WALL (    1481 calls)
     h_psi:calbec :      0.16s CPU      0.16s WALL (    1481 calls)
     vloc_psi     :      1.42s CPU      1.47s WALL (    1481 calls)
     add_vuspsi   :      0.08s CPU      0.08s WALL (    1481 calls)

     General routines
     calbec       :      0.15s CPU      0.16s WALL (    1481 calls)
     fft          :      0.02s CPU      0.05s WALL (      13 calls)
     ffts         :      0.00s CPU      0.00s WALL (       1 calls)
     fftw         :      1.16s CPU      1.21s WALL (   16210 calls)
     interpolate  :      0.00s CPU      0.00s WALL (       1 calls)
     davcio       :      0.01s CPU      0.01s WALL (     144 calls)
 
     Parallel routines
     fft_scatt_xy :      0.23s CPU      0.23s WALL (   16224 calls)
     fft_scatt_yz :      0.38s CPU      0.40s WALL (   16224 calls)
 
     PWSCF        :      3.75s CPU      3.90s WALL

 
   This run was terminated on:  15:46:37  24Jul2019            

=------------------------------------------------------------------------------=
   JOB DONE.
=------------------------------------------------------------------------------=
