
     Program BANDS v.6.4.1 starts on 24Jul2019 at 15:47:57 

     This program is part of the open-source Quantum ESPRESSO suite
     for quantum simulation of materials; please cite
         "P. Giannozzi et al., J. Phys.:Condens. Matter 21 395502 (2009);
         "P. Giannozzi et al., J. Phys.:Condens. Matter 29 465901 (2017);
          URL http://www.quantum-espresso.org", 
     in publications or presentations arising from this work. More details at
     http://www.quantum-espresso.org/quote

     Parallel version (MPI), running on     4 processors

     MPI processes distributed on     1 nodes
     R & G space division:  proc/nbgrp/npool/nimage =       4

     Reading data from directory:
     ./outdir/si.save/

     IMPORTANT: XC functional enforced from input :
     Exchange-correlation      = PBE ( 1  4  3  4 0 0)
     Any further DFT definition will be discarded
     Please, verify this is what you really want

 
     Parallelization info
     --------------------
     sticks:   dense  smooth     PW     G-vecs:    dense   smooth      PW
     Min         297     148     46                 6828     2394     409
     Max         298     150     47                 6831     2395     411
     Sum        1189     595    187                27317     9577    1639
 
     high-symmetry point:  0.5000 0.5000 0.5000   x coordinate   0.0000
     high-symmetry point:  0.0000 0.0000 0.0000   x coordinate   0.8660
     high-symmetry point:  1.0000 0.0000 0.0000   x coordinate   1.8660
     high-symmetry point:  1.0000 0.2500 0.2500   x coordinate   2.2196
     high-symmetry point:  0.0000 0.0000 0.0000   x coordinate   3.2802

     Plottable bands (eV) written to file si.bands.dat.gnu
     Bands written to file si.bands.dat

 **************************************************************************

                    xk=(   0.50000,   0.50000,   0.50000  )

     zone border point and non-symmorphic group 
     symmetry decomposition not available

 **************************************************************************

 **************************************************************************

                    xk=(   0.47500,   0.47500,   0.47500  )

     point group C_3v (3m)  
     there are  3 classes
     the character table:

       E     2C3   3s_v 
A_1    1.00  1.00  1.00
A_2    1.00  1.00 -1.00
E      2.00 -1.00  0.00

     the symmetry operations in each class and the name of the first element:

     E        1
                                                                 
     2C3      2    3
                                                                 
     3s_v     4    5    6
                                                                 

     Band symmetry, C_3v (3m)   point group:

     e(  1 -  1) =     -3.71786  eV     1   --> A_1  L_1       
     e(  2 -  2) =     -0.96428  eV     1   --> A_1  L_1       
     e(  3 -  4) =      4.60481  eV     2   --> E    L_3       
     e(  5 -  5) =      7.15267  eV     1   --> A_1  L_1       
     e(  6 -  7) =      9.12392  eV     2   --> E    L_3       
     e(  8 -  8) =     13.44489  eV     1   --> A_1  L_1       

 **************************************************************************

 **************************************************************************

                    xk=(   0.45000,   0.45000,   0.45000  )

     Band symmetry, C_3v (3m)   point group:

     e(  1 -  1) =     -3.80991  eV     1   --> A_1  L_1       
     e(  2 -  2) =     -0.82729  eV     1   --> A_1  L_1       
     e(  3 -  4) =      4.61801  eV     2   --> E    L_3       
     e(  5 -  5) =      7.16814  eV     1   --> A_1  L_1       
     e(  6 -  7) =      9.13730  eV     2   --> E    L_3       
     e(  8 -  8) =     13.46493  eV     1   --> A_1  L_1       

 **************************************************************************

 **************************************************************************

                    xk=(   0.42500,   0.42500,   0.42500  )

     Band symmetry, C_3v (3m)   point group:

     e(  1 -  1) =     -3.94561  eV     1   --> A_1  L_1       
     e(  2 -  2) =     -0.61680  eV     1   --> A_1  L_1       
     e(  3 -  4) =      4.63998  eV     2   --> E    L_3       
     e(  5 -  5) =      7.19385  eV     1   --> A_1  L_1       
     e(  6 -  7) =      9.15835  eV     2   --> E    L_3       
     e(  8 -  8) =     13.49495  eV     1   --> A_1  L_1       

 **************************************************************************

 **************************************************************************

                    xk=(   0.40000,   0.40000,   0.40000  )

     Band symmetry, C_3v (3m)   point group:

     e(  1 -  1) =     -4.10846  eV     1   --> A_1  L_1       
     e(  2 -  2) =     -0.34950  eV     1   --> A_1  L_1       
     e(  3 -  4) =      4.67069  eV     2   --> E    L_3       
     e(  5 -  5) =      7.22969  eV     1   --> A_1  L_1       
     e(  6 -  7) =      9.18509  eV     2   --> E    L_3       
     e(  8 -  8) =     13.52782  eV     1   --> A_1  L_1       

 **************************************************************************

 **************************************************************************

                    xk=(   0.37500,   0.37500,   0.37500  )

     Band symmetry, C_3v (3m)   point group:

     e(  1 -  1) =     -4.28527  eV     1   --> A_1  L_1       
     e(  2 -  2) =     -0.03885  eV     1   --> A_1  L_1       
     e(  3 -  4) =      4.71004  eV     2   --> E    L_3       
     e(  5 -  5) =      7.27545  eV     1   --> A_1  L_1       
     e(  6 -  7) =      9.21459  eV     2   --> E    L_3       
     e(  8 -  8) =     13.54746  eV     1   --> A_1  L_1       

 **************************************************************************

 **************************************************************************

                    xk=(   0.35000,   0.35000,   0.35000  )

     Band symmetry, C_3v (3m)   point group:

     e(  1 -  1) =     -4.46668  eV     1   --> A_1  L_1       
     e(  2 -  2) =      0.30549  eV     1   --> A_1  L_1       
     e(  3 -  4) =      4.75793  eV     2   --> E    L_3       
     e(  5 -  5) =      7.33091  eV     1   --> A_1  L_1       
     e(  6 -  7) =      9.24288  eV     2   --> E    L_3       
     e(  8 -  8) =     13.51789  eV     1   --> A_1  L_1       

 **************************************************************************

 **************************************************************************

                    xk=(   0.32500,   0.32500,   0.32500  )

     Band symmetry, C_3v (3m)   point group:

     e(  1 -  1) =     -4.64643  eV     1   --> A_1  L_1       
     e(  2 -  2) =      0.67674  eV     1   --> A_1  L_1       
     e(  3 -  4) =      4.81416  eV     2   --> E    L_3       
     e(  5 -  5) =      7.39567  eV     1   --> A_1  L_1       
     e(  6 -  7) =      9.26485  eV     2   --> E    L_3       
     e(  8 -  8) =     13.37926  eV     1   --> A_1  L_1       

 **************************************************************************

 **************************************************************************

                    xk=(   0.30000,   0.30000,   0.30000  )

     Band symmetry, C_3v (3m)   point group:

     e(  1 -  1) =     -4.82028  eV     1   --> A_1  L_1       
     e(  2 -  2) =      1.07012  eV     1   --> A_1  L_1       
     e(  3 -  4) =      4.87843  eV     2   --> E    L_3       
     e(  5 -  5) =      7.46922  eV     1   --> A_1  L_1       
     e(  6 -  7) =      9.27443  eV     2   --> E    L_3       
     e(  8 -  8) =     13.10484  eV     1   --> A_1  L_1       

 **************************************************************************

 **************************************************************************

                    xk=(   0.27500,   0.27500,   0.27500  )

     Band symmetry, C_3v (3m)   point group:

     e(  1 -  1) =     -4.98537  eV     1   --> A_1  L_1       
     e(  2 -  2) =      1.48197  eV     1   --> A_1  L_1       
     e(  3 -  4) =      4.95033  eV     2   --> E    L_3       
     e(  5 -  5) =      7.55086  eV     1   --> A_1  L_1       
     e(  6 -  7) =      9.26521  eV     2   --> E    L_3       
     e(  8 -  8) =     12.73885  eV     1   --> A_1  L_1       

 **************************************************************************

 **************************************************************************

                    xk=(   0.25000,   0.25000,   0.25000  )

     Band symmetry, C_3v (3m)   point group:

     e(  1 -  1) =     -5.13971  eV     1   --> A_1  L_1       
     e(  2 -  2) =      1.90931  eV     1   --> A_1  L_1       
     e(  3 -  4) =      5.02924  eV     2   --> E    L_3       
     e(  5 -  5) =      7.63965  eV     1   --> A_1  L_1       
     e(  6 -  7) =      9.23159  eV     2   --> E    L_3       
     e(  8 -  8) =     12.32801  eV     1   --> A_1  L_1       

 **************************************************************************

 **************************************************************************

                    xk=(   0.22500,   0.22500,   0.22500  )

     Band symmetry, C_3v (3m)   point group:

     e(  1 -  1) =     -5.28191  eV     1   --> A_1  L_1       
     e(  2 -  2) =      2.34944  eV     1   --> A_1  L_1       
     e(  3 -  4) =      5.11432  eV     2   --> E    L_3       
     e(  5 -  5) =      7.73433  eV     1   --> A_1  L_1       
     e(  6 -  7) =      9.17033  eV     2   --> E    L_3       
     e(  8 -  8) =     11.89553  eV     1   --> A_1  L_1       

 **************************************************************************

 **************************************************************************

                    xk=(   0.20000,   0.20000,   0.20000  )

     Band symmetry, C_3v (3m)   point group:

     e(  1 -  1) =     -5.41092  eV     1   --> A_1  L_1       
     e(  2 -  2) =      2.79956  eV     1   --> A_1  L_1       
     e(  3 -  4) =      5.20439  eV     2   --> E    L_3       
     e(  5 -  5) =      7.83322  eV     1   --> A_1  L_1       
     e(  6 -  7) =      9.08193  eV     2   --> E    L_3       
     e(  8 -  8) =     11.45174  eV     1   --> A_1  L_1       

 **************************************************************************

 **************************************************************************

                    xk=(   0.17500,   0.17500,   0.17500  )

     Band symmetry, C_3v (3m)   point group:

     e(  1 -  1) =     -5.52602  eV     1   --> A_1  L_1       
     e(  2 -  2) =      3.25650  eV     1   --> A_1  L_1       
     e(  3 -  4) =      5.29780  eV     2   --> E    L_3       
     e(  5 -  5) =      7.93409  eV     1   --> A_1  L_1       
     e(  6 -  7) =      8.97086  eV     2   --> E    L_3       
     e(  8 -  8) =     11.00209  eV     1   --> A_1  L_1       

 **************************************************************************

 **************************************************************************

                    xk=(   0.15000,   0.15000,   0.15000  )

     Band symmetry, C_3v (3m)   point group:

     e(  1 -  1) =     -5.62662  eV     1   --> A_1  L_1       
     e(  2 -  2) =      3.71621  eV     1   --> A_1  L_1       
     e(  3 -  4) =      5.39235  eV     2   --> E    L_3       
     e(  5 -  5) =      8.03407  eV     1   --> A_1  L_1       
     e(  6 -  7) =      8.84475  eV     2   --> E    L_3       
     e(  8 -  8) =     10.55091  eV     1   --> A_1  L_1       

 **************************************************************************

 **************************************************************************

                    xk=(   0.12500,   0.12500,   0.12500  )

     Band symmetry, C_3v (3m)   point group:

     e(  1 -  1) =     -5.71233  eV     1   --> A_1  L_1       
     e(  2 -  2) =      4.17290  eV     1   --> A_1  L_1       
     e(  3 -  4) =      5.48506  eV     2   --> E    L_3       
     e(  5 -  5) =      8.12934  eV     1   --> A_1  L_1       
     e(  6 -  7) =      8.71298  eV     2   --> E    L_3       
     e(  8 -  8) =     10.10370  eV     1   --> A_1  L_1       

 **************************************************************************

 **************************************************************************

                    xk=(   0.10000,   0.10000,   0.10000  )

     Band symmetry, C_3v (3m)   point group:

     e(  1 -  1) =     -5.78283  eV     1   --> A_1  L_1       
     e(  2 -  2) =      4.61766  eV     1   --> A_1  L_1       
     e(  3 -  4) =      5.57209  eV     2   --> E    L_3       
     e(  5 -  5) =      8.21497  eV     1   --> A_1  L_1       
     e(  6 -  7) =      8.58557  eV     2   --> E    L_3       
     e(  8 -  8) =      9.66954  eV     1   --> A_1  L_1       

 **************************************************************************

 **************************************************************************

                    xk=(   0.07500,   0.07500,   0.07500  )

     Band symmetry, C_3v (3m)   point group:

     e(  1 -  1) =     -5.83788  eV     1   --> A_1  L_1       
     e(  2 -  2) =      5.03543  eV     1   --> A_1  L_1       
     e(  3 -  4) =      5.64862  eV     2   --> E    L_3       
     e(  5 -  5) =      8.28407  eV     1   --> A_1  L_1       
     e(  6 -  7) =      8.47248  eV     2   --> E    L_3       
     e(  8 -  8) =      9.26515  eV     1   --> A_1  L_1       

 **************************************************************************

 **************************************************************************

                    xk=(   0.05000,   0.05000,   0.05000  )

     Band symmetry, C_3v (3m)   point group:

     e(  1 -  1) =     -5.87731  eV     1   --> A_1  L_1       
     e(  2 -  2) =      5.39935  eV     1   --> A_1  L_1       
     e(  3 -  4) =      5.70920  eV     2   --> E    L_3       
     e(  5 -  5) =      8.32570  eV     1   --> A_1  L_1       
     e(  6 -  7) =      8.38312  eV     2   --> E    L_3       
     e(  8 -  8) =      8.92326  eV     1   --> A_1  L_1       

 **************************************************************************

 **************************************************************************

                    xk=(   0.02500,   0.02500,   0.02500  )

     Band symmetry, C_3v (3m)   point group:

     e(  1 -  1) =     -5.90101  eV     1   --> A_1  L_1       
     e(  2 -  2) =      5.66261  eV     1   --> A_1  L_1       
     e(  3 -  4) =      5.74836  eV     2   --> E    L_3       
     e(  5 -  5) =      8.32445  eV     1   --> A_1  L_1       
     e(  6 -  7) =      8.32564  eV     2   --> E    L_3       
     e(  8 -  8) =      8.70155  eV     1   --> A_1  L_1       

 **************************************************************************

 **************************************************************************

                    xk=(   0.00000,   0.00000,   0.00000  )

     point group O_h (m-3m) 
     there are 10 classes
     the character table:

       E     8C3   3C2   6C4   6C2'  i     8S6   3s_h  6S4   6s_d 
A_1g   1.00  1.00  1.00  1.00  1.00  1.00  1.00  1.00  1.00  1.00
A_2g   1.00  1.00  1.00 -1.00 -1.00  1.00  1.00  1.00 -1.00 -1.00
E_g    2.00 -1.00  2.00  0.00  0.00  2.00 -1.00  2.00  0.00  0.00
T_1g   3.00  0.00 -1.00  1.00 -1.00  3.00  0.00 -1.00  1.00 -1.00
T_2g   3.00  0.00 -1.00 -1.00  1.00  3.00  0.00 -1.00 -1.00  1.00
A_1u   1.00  1.00  1.00  1.00  1.00 -1.00 -1.00 -1.00 -1.00 -1.00
A_2u   1.00  1.00  1.00 -1.00 -1.00 -1.00 -1.00 -1.00  1.00  1.00
E_u    2.00 -1.00  2.00  0.00  0.00 -2.00  1.00 -2.00  0.00  0.00
T_1u   3.00  0.00 -1.00  1.00 -1.00 -3.00  0.00  1.00 -1.00  1.00
T_2u   3.00  0.00 -1.00 -1.00  1.00 -3.00  0.00  1.00  1.00 -1.00

     the symmetry operations in each class and the name of the first element:

     E        1
                                                                 
     8C3     17   19   20   18   24   21   22   23
                                                                 
     3C2      2    4    3
                                                                 
     6C4      7    8   15   16   12   11
                                                                 
     6C2'     5    6   14   13   10    9
                                                                 
     i       25
                                                                 
     8S6     41   43   44   42   48   45   46   47
                                                                 
     3s_h    26   28   27
                                                                 
     6S4     31   32   39   40   36   35
                                                                 
     6s_d    29   30   38   37   34   33
                                                                 

     Band symmetry, O_h (m-3m)  point group:

     e(  1 -  1) =     -5.90892  eV     1   --> A_1g G_1   G_1+
     e(  2 -  4) =      5.76195  eV     3   --> T_2g G_25' G_5+
     e(  5 -  7) =      8.30579  eV     3   --> T_1u G_15  G_4-
     e(  8 -  8) =      8.63469  eV     1   --> A_2u G_2'  G_2-

 **************************************************************************

 **************************************************************************

                    xk=(   0.03333,   0.00000,   0.00000  )

     point group C_4v (4mm) 
     there are  5 classes
     the character table:

       E     2C4   C2    2s_v  2s_d 
A_1    1.00  1.00  1.00  1.00  1.00
A_2    1.00  1.00  1.00 -1.00 -1.00
B_1    1.00 -1.00  1.00  1.00 -1.00
B_2    1.00 -1.00  1.00 -1.00  1.00
E      2.00  0.00 -2.00  0.00  0.00

     the symmetry operations in each class and the name of the first element:

     E        1
                                                                 
     2C4      3    4
                                                                 
     C2       2
                                                                 
     2s_v     5    6
                                                                 
     2s_d     7    8
                                                                 

     Band symmetry, C_4v (4mm)  point group:

     e(  1 -  1) =     -5.90423  eV     1   --> A_1  G_1 D_1   
     e(  2 -  2) =      5.72539  eV     1   --> B_2  G_4 D_2'  
     e(  3 -  4) =      5.74202  eV     2   --> E    G_5 D_5   
     e(  5 -  5) =      8.29414  eV     1   --> A_1  G_1 D_1   
     e(  6 -  7) =      8.33150  eV     2   --> E    G_5 D_5   
     e(  8 -  8) =      8.67057  eV     1   --> B_2  G_4 D_2'  

 **************************************************************************

 **************************************************************************

                    xk=(   0.06667,   0.00000,   0.00000  )

     Band symmetry, C_4v (4mm)  point group:

     e(  1 -  1) =     -5.89018  eV     1   --> A_1  G_1 D_1   
     e(  2 -  2) =      5.62099  eV     1   --> B_2  G_4 D_2'  
     e(  3 -  4) =      5.68461  eV     2   --> E    G_5 D_5   
     e(  5 -  5) =      8.25984  eV     1   --> A_1  G_1 D_1   
     e(  6 -  7) =      8.40627  eV     2   --> E    G_5 D_5   
     e(  8 -  8) =      8.77241  eV     1   --> B_2  G_4 D_2'  

 **************************************************************************

 **************************************************************************

                    xk=(   0.10000,   0.00000,   0.00000  )

     Band symmetry, C_4v (4mm)  point group:

     e(  1 -  1) =     -5.86676  eV     1   --> A_1  G_1 D_1   
     e(  2 -  2) =      5.46145  eV     1   --> B_2  G_4 D_2'  
     e(  3 -  4) =      5.59582  eV     2   --> E    G_5 D_5   
     e(  5 -  5) =      8.20467  eV     1   --> A_1  G_1 D_1   
     e(  6 -  7) =      8.52394  eV     2   --> E    G_5 D_5   
     e(  8 -  8) =      8.92594  eV     1   --> B_2  G_4 D_2'  

 **************************************************************************

 **************************************************************************

                    xk=(   0.13333,   0.00000,   0.00000  )

     Band symmetry, C_4v (4mm)  point group:

     e(  1 -  1) =     -5.83399  eV     1   --> A_1  G_1 D_1   
     e(  2 -  2) =      5.26100  eV     1   --> B_2  G_4 D_2'  
     e(  3 -  4) =      5.48321  eV     2   --> E    G_5 D_5   
     e(  5 -  5) =      8.13125  eV     1   --> A_1  G_1 D_1   
     e(  6 -  7) =      8.67692  eV     2   --> E    G_5 D_5   
     e(  8 -  8) =      9.11376  eV     1   --> B_2  G_4 D_2'  

 **************************************************************************

 **************************************************************************

                    xk=(   0.16667,   0.00000,   0.00000  )

     Band symmetry, C_4v (4mm)  point group:

     e(  1 -  1) =     -5.79189  eV     1   --> A_1  G_1 D_1   
     e(  2 -  2) =      5.03170  eV     1   --> B_2  G_4 D_2'  
     e(  3 -  4) =      5.35393  eV     2   --> E    G_5 D_5   
     e(  5 -  5) =      8.04273  eV     1   --> A_1  G_1 D_1   
     e(  6 -  7) =      8.85795  eV     2   --> E    G_5 D_5   
     e(  8 -  8) =      9.31846  eV     1   --> B_2  G_4 D_2'  

 **************************************************************************

 **************************************************************************

                    xk=(   0.20000,   0.00000,   0.00000  )

     Band symmetry, C_4v (4mm)  point group:

     e(  1 -  1) =     -5.74049  eV     1   --> A_1  G_1 D_1   
     e(  2 -  2) =      4.78243  eV     1   --> B_2  G_4 D_2'  
     e(  3 -  4) =      5.21394  eV     2   --> E    G_5 D_5   
     e(  5 -  5) =      7.94240  eV     1   --> A_1  G_1 D_1   
     e(  6 -  7) =      9.06098  eV     2   --> E    G_5 D_5   
     e(  8 -  8) =      9.52201  eV     1   --> B_2  G_4 D_2'  

 **************************************************************************

 **************************************************************************

                    xk=(   0.23333,   0.00000,   0.00000  )

     Band symmetry, C_4v (4mm)  point group:

     e(  1 -  1) =     -5.67982  eV     1   --> A_1  G_1 D_1   
     e(  2 -  2) =      4.51939  eV     1   --> B_2  G_4 D_2'  
     e(  3 -  4) =      5.06779  eV     2   --> E    G_5 D_5   
     e(  5 -  5) =      7.83342  eV     1   --> A_1  G_1 D_1   
     e(  6 -  7) =      9.28134  eV     2   --> E    G_5 D_5   
     e(  8 -  8) =      9.70334  eV     1   --> B_2  G_4 D_2'  

 **************************************************************************

 **************************************************************************

                    xk=(   0.26667,   0.00000,   0.00000  )

     Band symmetry, C_4v (4mm)  point group:

     e(  1 -  1) =     -5.60993  eV     1   --> A_1  G_1 D_1   
     e(  2 -  2) =      4.24683  eV     1   --> B_2  G_4 D_2'  
     e(  3 -  4) =      4.91892  eV     2   --> E    G_5 D_5   
     e(  5 -  5) =      7.71874  eV     1   --> A_1  G_1 D_1   
     e(  6 -  7) =      9.51547  eV     2   --> E    G_5 D_5   
     e(  8 -  8) =      9.83618  eV     1   --> B_2  G_4 D_2'  

 **************************************************************************

 **************************************************************************

                    xk=(   0.30000,   0.00000,   0.00000  )

     Band symmetry, C_4v (4mm)  point group:

     e(  1 -  1) =     -5.53085  eV     1   --> A_1  G_1 D_1   
     e(  2 -  2) =      3.96764  eV     1   --> B_2  G_4 D_2'  
     e(  3 -  4) =      4.76987  eV     2   --> E    G_5 D_5   
     e(  5 -  5) =      7.60092  eV     1   --> A_1  G_1 D_1   
     e(  6 -  7) =      9.76070  eV     2   --> E    G_5 D_5   
     e(  8 -  8) =      9.89265  eV     1   --> B_2  G_4 D_2'  

 **************************************************************************

 **************************************************************************

                    xk=(   0.33333,   0.00000,   0.00000  )

     Band symmetry, C_4v (4mm)  point group:

     e(  1 -  1) =     -5.44264  eV     1   --> A_1  G_1 D_1   
     e(  2 -  2) =      3.68383  eV     1   --> B_2  G_4 D_2'  
     e(  3 -  4) =      4.62251  eV     2   --> E    G_5 D_5   
     e(  5 -  5) =      7.48221  eV     1   --> A_1  G_1 D_1   
     e(  6 -  6) =      9.85748  eV     1   --> B_2  G_4 D_2'  
     e(  7 -  8) =     10.01502  eV     2   --> E    G_5 D_5   

 **************************************************************************

 **************************************************************************

                    xk=(   0.36667,   0.00000,   0.00000  )

     Band symmetry, C_4v (4mm)  point group:

     e(  1 -  1) =     -5.34535  eV     1   --> A_1  G_1 D_1   
     e(  2 -  2) =      3.39683  eV     1   --> B_2  G_4 D_2'  
     e(  3 -  4) =      4.47826  eV     2   --> E    G_5 D_5   
     e(  5 -  5) =      7.36450  eV     1   --> A_1  G_1 D_1   
     e(  6 -  6) =      9.73975  eV     1   --> B_2  G_4 D_2'  
     e(  7 -  8) =     10.27688  eV     2   --> E    G_5 D_5   

 **************************************************************************

 **************************************************************************

                    xk=(   0.40000,   0.00000,   0.00000  )

     Band symmetry, C_4v (4mm)  point group:

     e(  1 -  1) =     -5.23906  eV     1   --> A_1  G_1 D_1   
     e(  2 -  2) =      3.10764  eV     1   --> B_2  G_4 D_2'  
     e(  3 -  4) =      4.33822  eV     2   --> E    G_5 D_5   
     e(  5 -  5) =      7.24942  eV     1   --> A_1  G_1 D_1   
     e(  6 -  6) =      9.56403  eV     1   --> B_2  G_4 D_2'  
     e(  7 -  8) =     10.54507  eV     2   --> E    G_5 D_5   

 **************************************************************************

 **************************************************************************

                    xk=(   0.43333,   0.00000,   0.00000  )

     Band symmetry, C_4v (4mm)  point group:

     e(  1 -  1) =     -5.12385  eV     1   --> A_1  G_1 D_1   
     e(  2 -  2) =      2.81706  eV     1   --> B_2  G_4 D_2'  
     e(  3 -  4) =      4.20322  eV     2   --> E    G_5 D_5   
     e(  5 -  5) =      7.13832  eV     1   --> A_1  G_1 D_1   
     e(  6 -  6) =      9.35432  eV     1   --> B_2  G_4 D_2'  
     e(  7 -  8) =     10.81865  eV     2   --> E    G_5 D_5   

 **************************************************************************

 **************************************************************************

                    xk=(   0.46667,   0.00000,   0.00000  )

     Band symmetry, C_4v (4mm)  point group:

     e(  1 -  1) =     -4.99979  eV     1   --> A_1  G_1 D_1   
     e(  2 -  2) =      2.52567  eV     1   --> B_2  G_4 D_2'  
     e(  3 -  4) =      4.07392  eV     2   --> E    G_5 D_5   
     e(  5 -  5) =      7.03236  eV     1   --> A_1  G_1 D_1   
     e(  6 -  6) =      9.12766  eV     1   --> B_2  G_4 D_2'  
     e(  7 -  8) =     11.09687  eV     2   --> E    G_5 D_5   

 **************************************************************************

 **************************************************************************

                    xk=(   0.50000,   0.00000,   0.00000  )

     Band symmetry, C_4v (4mm)  point group:

     e(  1 -  1) =     -4.86697  eV     1   --> A_1  G_1 D_1   
     e(  2 -  2) =      2.23396  eV     1   --> B_2  G_4 D_2'  
     e(  3 -  4) =      3.95083  eV     2   --> E    G_5 D_5   
     e(  5 -  5) =      6.93251  eV     1   --> A_1  G_1 D_1   
     e(  6 -  6) =      8.89497  eV     1   --> B_2  G_4 D_2'  
     e(  7 -  8) =     11.37912  eV     2   --> E    G_5 D_5   

 **************************************************************************

 **************************************************************************

                    xk=(   0.53333,   0.00000,   0.00000  )

     Band symmetry, C_4v (4mm)  point group:

     e(  1 -  1) =     -4.72551  eV     1   --> A_1  G_1 D_1   
     e(  2 -  2) =      1.94236  eV     1   --> B_2  G_4 D_2'  
     e(  3 -  4) =      3.83440  eV     2   --> E    G_5 D_5   
     e(  5 -  5) =      6.83959  eV     1   --> A_1  G_1 D_1   
     e(  6 -  6) =      8.66313  eV     1   --> B_2  G_4 D_2'  
     e(  7 -  8) =     11.66493  eV     2   --> E    G_5 D_5   

 **************************************************************************

 **************************************************************************

                    xk=(   0.56667,   0.00000,   0.00000  )

     Band symmetry, C_4v (4mm)  point group:

     e(  1 -  1) =     -4.57551  eV     1   --> A_1  G_1 D_1   
     e(  2 -  2) =      1.65123  eV     1   --> B_2  G_4 D_2'  
     e(  3 -  4) =      3.72495  eV     2   --> E    G_5 D_5   
     e(  5 -  5) =      6.75435  eV     1   --> A_1  G_1 D_1   
     e(  6 -  6) =      8.43652  eV     1   --> B_2  G_4 D_2'  
     e(  7 -  8) =     11.95392  eV     2   --> E    G_5 D_5   

 **************************************************************************

 **************************************************************************

                    xk=(   0.60000,   0.00000,   0.00000  )

     Band symmetry, C_4v (4mm)  point group:

     e(  1 -  1) =     -4.41707  eV     1   --> A_1  G_1 D_1   
     e(  2 -  2) =      1.36097  eV     1   --> B_2  G_4 D_2'  
     e(  3 -  4) =      3.62277  eV     2   --> E    G_5 D_5   
     e(  5 -  5) =      6.67739  eV     1   --> A_1  G_1 D_1   
     e(  6 -  6) =      8.21801  eV     1   --> B_2  G_4 D_2'  
     e(  7 -  8) =     12.24576  eV     2   --> E    G_5 D_5   

 **************************************************************************

 **************************************************************************

                    xk=(   0.63333,   0.00000,   0.00000  )

     Band symmetry, C_4v (4mm)  point group:

     e(  1 -  1) =     -4.25036  eV     1   --> A_1  G_1 D_1   
     e(  2 -  2) =      1.07193  eV     1   --> B_2  G_4 D_2'  
     e(  3 -  4) =      3.52811  eV     2   --> E    G_5 D_5   
     e(  5 -  5) =      6.60926  eV     1   --> A_1  G_1 D_1   
     e(  6 -  6) =      8.00950  eV     1   --> B_2  G_4 D_2'  
     e(  7 -  8) =     12.54018  eV     2   --> E    G_5 D_5   

 **************************************************************************

 **************************************************************************

                    xk=(   0.66667,   0.00000,   0.00000  )

     Band symmetry, C_4v (4mm)  point group:

     e(  1 -  1) =     -4.07550  eV     1   --> A_1  G_1 D_1   
     e(  2 -  2) =      0.78448  eV     1   --> B_2  G_4 D_2'  
     e(  3 -  4) =      3.44115  eV     2   --> E    G_5 D_5   
     e(  5 -  5) =      6.55045  eV     1   --> A_1  G_1 D_1   
     e(  6 -  6) =      7.81231  eV     1   --> B_2  G_4 D_2'  
     e(  7 -  8) =     12.83694  eV     2   --> E    G_5 D_5   

 **************************************************************************

 **************************************************************************

                    xk=(   0.70000,   0.00000,   0.00000  )

     Band symmetry, C_4v (4mm)  point group:

     e(  1 -  1) =     -3.89265  eV     1   --> A_1  G_1 D_1   
     e(  2 -  2) =      0.49899  eV     1   --> B_2  G_4 D_2'  
     e(  3 -  4) =      3.36206  eV     2   --> E    G_5 D_5   
     e(  5 -  5) =      6.50140  eV     1   --> A_1  G_1 D_1   
     e(  6 -  6) =      7.62730  eV     1   --> B_2  G_4 D_2'  
     e(  7 -  8) =     13.13576  eV     2   --> E    G_5 D_5   

 **************************************************************************

 **************************************************************************

                    xk=(   0.73333,   0.00000,   0.00000  )

     Band symmetry, C_4v (4mm)  point group:

     e(  1 -  1) =     -3.70198  eV     1   --> A_1  G_1 D_1   
     e(  2 -  2) =      0.21583  eV     1   --> B_2  G_4 D_2'  
     e(  3 -  4) =      3.29098  eV     2   --> E    G_5 D_5   
     e(  5 -  5) =      6.46250  eV     1   --> A_1  G_1 D_1   
     e(  6 -  6) =      7.45505  eV     1   --> B_2  G_4 D_2'  
     e(  7 -  8) =     13.43631  eV     2   --> E    G_5 D_5   

 **************************************************************************

 **************************************************************************

                    xk=(   0.76667,   0.00000,   0.00000  )

     Band symmetry, C_4v (4mm)  point group:

     e(  1 -  1) =     -3.50366  eV     1   --> A_1  G_1 D_1   
     e(  2 -  2) =     -0.06462  eV     1   --> B_2  G_4 D_2'  
     e(  3 -  4) =      3.22802  eV     2   --> E    G_5 D_5   
     e(  5 -  5) =      6.43411  eV     1   --> A_1  G_1 D_1   
     e(  6 -  6) =      7.29593  eV     1   --> B_2  G_4 D_2'  
     e(  7 -  8) =     13.73809  eV     2   --> E    G_5 D_5   

 **************************************************************************

 **************************************************************************

                    xk=(   0.80000,   0.00000,   0.00000  )

     Band symmetry, C_4v (4mm)  point group:

     e(  1 -  1) =     -3.29791  eV     1   --> A_1  G_1 D_1   
     e(  2 -  2) =     -0.34198  eV     1   --> B_2  G_4 D_2'  
     e(  3 -  4) =      3.17328  eV     2   --> E    G_5 D_5   
     e(  5 -  5) =      6.41657  eV     1   --> A_1  G_1 D_1   
     e(  6 -  6) =      7.15014  eV     1   --> B_2  G_4 D_2'  
     e(  7 -  8) =     14.04031  eV     2   --> E    G_5 D_5   

 **************************************************************************

 **************************************************************************

                    xk=(   0.83333,   0.00000,   0.00000  )

     Band symmetry, C_4v (4mm)  point group:

     e(  1 -  1) =     -3.08492  eV     1   --> A_1  G_1 D_1   
     e(  2 -  2) =     -0.61587  eV     1   --> B_2  G_4 D_2'  
     e(  3 -  4) =      3.12683  eV     2   --> E    G_5 D_5   
     e(  5 -  5) =      6.41018  eV     1   --> A_1  G_1 D_1   
     e(  6 -  6) =      7.01778  eV     1   --> B_2  G_4 D_2'  
     e(  7 -  8) =     14.34159  eV     2   --> E    G_5 D_5   

 **************************************************************************

 **************************************************************************

                    xk=(   0.86667,   0.00000,   0.00000  )

     Band symmetry, C_4v (4mm)  point group:

     e(  1 -  1) =     -2.86495  eV     1   --> A_1  G_1 D_1   
     e(  2 -  2) =     -0.88592  eV     1   --> B_2  G_4 D_2'  
     e(  3 -  4) =      3.08875  eV     2   --> E    G_5 D_5   
     e(  5 -  5) =      6.41525  eV     1   --> A_1  G_1 D_1   
     e(  6 -  6) =      6.89885  eV     1   --> B_2  G_4 D_2'  
     e(  7 -  8) =     14.63930  eV     2   --> E    G_5 D_5   

 **************************************************************************

 **************************************************************************

                    xk=(   0.90000,   0.00000,   0.00000  )

     Band symmetry, C_4v (4mm)  point group:

     e(  1 -  1) =     -2.63822  eV     1   --> A_1  G_1 D_1   
     e(  2 -  2) =     -1.15172  eV     1   --> B_2  G_4 D_2'  
     e(  3 -  4) =      3.05908  eV     2   --> E    G_5 D_5   
     e(  5 -  5) =      6.43206  eV     1   --> A_1  G_1 D_1   
     e(  6 -  6) =      6.79329  eV     1   --> B_2  G_4 D_2'  
     e(  7 -  8) =     14.92803  eV     2   --> E    G_5 D_5   

 **************************************************************************

 **************************************************************************

                    xk=(   0.93333,   0.00000,   0.00000  )

     Band symmetry, C_4v (4mm)  point group:

     e(  1 -  1) =     -2.40500  eV     1   --> A_1  G_1 D_1   
     e(  2 -  2) =     -1.41294  eV     1   --> B_2  G_4 D_2'  
     e(  3 -  4) =      3.03786  eV     2   --> E    G_5 D_5   
     e(  5 -  5) =      6.46088  eV     1   --> A_1  G_1 D_1   
     e(  6 -  6) =      6.70098  eV     1   --> B_2  G_4 D_2'  
     e(  7 -  8) =     15.19524  eV     2   --> E    G_5 D_5   

 **************************************************************************

 **************************************************************************

                    xk=(   0.96667,   0.00000,   0.00000  )

     Band symmetry, C_4v (4mm)  point group:

     e(  1 -  1) =     -2.16555  eV     1   --> A_1  G_1 D_1   
     e(  2 -  2) =     -1.66920  eV     1   --> B_2  G_4 D_2'  
     e(  3 -  4) =      3.02511  eV     2   --> E    G_5 D_5   
     e(  5 -  5) =      6.50194  eV     1   --> A_1  G_1 D_1   
     e(  6 -  6) =      6.62178  eV     1   --> B_2  G_4 D_2'  
     e(  7 -  8) =     15.40904  eV     2   --> E    G_5 D_5   

 **************************************************************************

 **************************************************************************

                    xk=(   1.00000,   0.00000,   0.00000  )

     zone border point and non-symmorphic group 
     symmetry decomposition not available

 **************************************************************************

 **************************************************************************

                    xk=(   1.00000,   0.02500,   0.02500  )

     zone border point and non-symmorphic group 
     symmetry decomposition not available

 **************************************************************************

 **************************************************************************

                    xk=(   1.00000,   0.05000,   0.05000  )

     zone border point and non-symmorphic group 
     symmetry decomposition not available

 **************************************************************************

 **************************************************************************

                    xk=(   1.00000,   0.07500,   0.07500  )

     zone border point and non-symmorphic group 
     symmetry decomposition not available

 **************************************************************************

 **************************************************************************

                    xk=(   1.00000,   0.10000,   0.10000  )

     zone border point and non-symmorphic group 
     symmetry decomposition not available

 **************************************************************************

 **************************************************************************

                    xk=(   1.00000,   0.12500,   0.12500  )

     zone border point and non-symmorphic group 
     symmetry decomposition not available

 **************************************************************************

 **************************************************************************

                    xk=(   1.00000,   0.15000,   0.15000  )

     zone border point and non-symmorphic group 
     symmetry decomposition not available

 **************************************************************************

 **************************************************************************

                    xk=(   1.00000,   0.17500,   0.17500  )

     zone border point and non-symmorphic group 
     symmetry decomposition not available

 **************************************************************************

 **************************************************************************

                    xk=(   1.00000,   0.20000,   0.20000  )

     zone border point and non-symmorphic group 
     symmetry decomposition not available

 **************************************************************************

 **************************************************************************

                    xk=(   1.00000,   0.22500,   0.22500  )

     zone border point and non-symmorphic group 
     symmetry decomposition not available

 **************************************************************************

 **************************************************************************

                    xk=(   1.00000,   0.25000,   0.25000  )

     zone border point and non-symmorphic group 
     symmetry decomposition not available

 **************************************************************************

 **************************************************************************

                    xk=(   0.96667,   0.24167,   0.24167  )

     point group C_s (m)    
     there are  2 classes
     the character table:

       E     s    
A'     1.00  1.00
A''    1.00 -1.00

     the symmetry operations in each class and the name of the first element:

     E        1
                                                                 
     s        2
                                                                 

     Band symmetry, C_s (m)     point group:

     e(  1 -  1) =     -2.33826  eV     1   --> A'             
     e(  2 -  2) =     -1.34790  eV     1   --> A'             
     e(  3 -  3) =      1.70091  eV     1   --> A'             
     e(  4 -  4) =      3.40886  eV     1   --> A''            
     e(  5 -  5) =      7.00119  eV     1   --> A'             
     e(  6 -  6) =      9.69999  eV     1   --> A'             
     e(  7 -  7) =     13.07594  eV     1   --> A''            
     e(  8 -  8) =     13.40310  eV     1   --> A'             

 **************************************************************************

 **************************************************************************

                    xk=(   0.93333,   0.23333,   0.23333  )

     Band symmetry, C_s (m)     point group:

     e(  1 -  1) =     -2.41851  eV     1   --> A'             
     e(  2 -  2) =     -1.27501  eV     1   --> A'             
     e(  3 -  3) =      1.76941  eV     1   --> A'             
     e(  4 -  4) =      3.39520  eV     1   --> A''            
     e(  5 -  5) =      6.98860  eV     1   --> A'             
     e(  6 -  6) =      9.55628  eV     1   --> A'             
     e(  7 -  7) =     13.00833  eV     1   --> A''            
     e(  8 -  8) =     13.18355  eV     1   --> A'             

 **************************************************************************

 **************************************************************************

                    xk=(   0.90000,   0.22500,   0.22500  )

     Band symmetry, C_s (m)     point group:

     e(  1 -  1) =     -2.55619  eV     1   --> A'             
     e(  2 -  2) =     -1.14376  eV     1   --> A'             
     e(  3 -  3) =      1.86035  eV     1   --> A'             
     e(  4 -  4) =      3.39030  eV     1   --> A''            
     e(  5 -  5) =      6.98757  eV     1   --> A'             
     e(  6 -  6) =      9.42670  eV     1   --> A'             
     e(  7 -  7) =     12.89103  eV     1   --> A''            
     e(  8 -  8) =     12.96413  eV     1   --> A'             

 **************************************************************************

 **************************************************************************

                    xk=(   0.86667,   0.21667,   0.21667  )

     Band symmetry, C_s (m)     point group:

     e(  1 -  1) =     -2.72705  eV     1   --> A'             
     e(  2 -  2) =     -0.97537  eV     1   --> A'             
     e(  3 -  3) =      1.97038  eV     1   --> A'             
     e(  4 -  4) =      3.39427  eV     1   --> A''            
     e(  5 -  5) =      6.99767  eV     1   --> A'             
     e(  6 -  6) =      9.31214  eV     1   --> A'             
     e(  7 -  7) =     12.74607  eV     1   --> A'             
     e(  8 -  8) =     12.75264  eV     1   --> A''            

 **************************************************************************

 **************************************************************************

                    xk=(   0.83333,   0.20833,   0.20833  )

     Band symmetry, C_s (m)     point group:

     e(  1 -  1) =     -2.91519  eV     1   --> A'             
     e(  2 -  2) =     -0.78324  eV     1   --> A'             
     e(  3 -  3) =      2.09662  eV     1   --> A'             
     e(  4 -  4) =      3.40721  eV     1   --> A''            
     e(  5 -  5) =      7.01824  eV     1   --> A'             
     e(  6 -  6) =      9.21363  eV     1   --> A'             
     e(  7 -  7) =     12.52981  eV     1   --> A'             
     e(  8 -  8) =     12.60572  eV     1   --> A''            

 **************************************************************************

 **************************************************************************

                    xk=(   0.80000,   0.20000,   0.20000  )

     Band symmetry, C_s (m)     point group:

     e(  1 -  1) =     -3.11150  eV     1   --> A'             
     e(  2 -  2) =     -0.57449  eV     1   --> A'             
     e(  3 -  3) =      2.23660  eV     1   --> A'             
     e(  4 -  4) =      3.42917  eV     1   --> A''            
     e(  5 -  5) =      7.04835  eV     1   --> A'             
     e(  6 -  6) =      9.13240  eV     1   --> A'             
     e(  7 -  7) =     12.31557  eV     1   --> A'             
     e(  8 -  8) =     12.45561  eV     1   --> A''            

 **************************************************************************

 **************************************************************************

                    xk=(   0.76667,   0.19167,   0.19167  )

     Band symmetry, C_s (m)     point group:

     e(  1 -  1) =     -3.31056  eV     1   --> A'             
     e(  2 -  2) =     -0.35294  eV     1   --> A'             
     e(  3 -  3) =      2.38815  eV     1   --> A'             
     e(  4 -  4) =      3.46018  eV     1   --> A''            
     e(  5 -  5) =      7.08677  eV     1   --> A'             
     e(  6 -  6) =      9.06985  eV     1   --> A'             
     e(  7 -  7) =     12.10357  eV     1   --> A'             
     e(  8 -  8) =     12.30447  eV     1   --> A''            

 **************************************************************************

 **************************************************************************

                    xk=(   0.73333,   0.18333,   0.18333  )

     Band symmetry, C_s (m)     point group:

     e(  1 -  1) =     -3.50900  eV     1   --> A'             
     e(  2 -  2) =     -0.12069  eV     1   --> A'             
     e(  3 -  3) =      2.54939  eV     1   --> A'             
     e(  4 -  4) =      3.50026  eV     1   --> A''            
     e(  5 -  5) =      7.13198  eV     1   --> A'             
     e(  6 -  6) =      9.02757  eV     1   --> A'             
     e(  7 -  7) =     11.89398  eV     1   --> A'             
     e(  8 -  8) =     12.15286  eV     1   --> A''            

 **************************************************************************

 **************************************************************************

                    xk=(   0.70000,   0.17500,   0.17500  )

     Band symmetry, C_s (m)     point group:

     e(  1 -  1) =     -3.70451  eV     1   --> A'             
     e(  2 -  2) =      0.12094  eV     1   --> A'             
     e(  3 -  3) =      2.71862  eV     1   --> A'             
     e(  4 -  4) =      3.54939  eV     1   --> A''            
     e(  5 -  5) =      7.18220  eV     1   --> A'             
     e(  6 -  6) =      9.00721  eV     1   --> A'             
     e(  7 -  7) =     11.68707  eV     1   --> A'             
     e(  8 -  8) =     12.00048  eV     1   --> A''            

 **************************************************************************

 **************************************************************************

                    xk=(   0.66667,   0.16667,   0.16667  )

     Band symmetry, C_s (m)     point group:

     e(  1 -  1) =     -3.89549  eV     1   --> A'             
     e(  2 -  2) =      0.37117  eV     1   --> A'             
     e(  3 -  3) =      2.89428  eV     1   --> A'             
     e(  4 -  4) =      3.60751  eV     1   --> A''            
     e(  5 -  5) =      7.23552  eV     1   --> A'             
     e(  6 -  6) =      9.01031  eV     1   --> A'             
     e(  7 -  7) =     11.48324  eV     1   --> A'             
     e(  8 -  8) =     11.84645  eV     1   --> A''            

 **************************************************************************

 **************************************************************************

                    xk=(   0.63333,   0.15833,   0.15833  )

     Band symmetry, C_s (m)     point group:

     e(  1 -  1) =     -4.08073  eV     1   --> A'             
     e(  2 -  2) =      0.62939  eV     1   --> A'             
     e(  3 -  3) =      3.07495  eV     1   --> A'             
     e(  4 -  4) =      3.67454  eV     1   --> A''            
     e(  5 -  5) =      7.29013  eV     1   --> A'             
     e(  6 -  6) =      9.03792  eV     1   --> A'             
     e(  7 -  7) =     11.28310  eV     1   --> A'             
     e(  8 -  8) =     11.68949  eV     1   --> A''            

 **************************************************************************

 **************************************************************************

                    xk=(   0.60000,   0.15000,   0.15000  )

     Band symmetry, C_s (m)     point group:

     e(  1 -  1) =     -4.25933  eV     1   --> A'             
     e(  2 -  2) =      0.89520  eV     1   --> A'             
     e(  3 -  3) =      3.25930  eV     1   --> A'             
     e(  4 -  4) =      3.75039  eV     1   --> A''            
     e(  5 -  5) =      7.34457  eV     1   --> A'             
     e(  6 -  6) =      9.09016  eV     1   --> A'             
     e(  7 -  7) =     11.08763  eV     1   --> A'             
     e(  8 -  8) =     11.52810  eV     1   --> A''            

 **************************************************************************

 **************************************************************************

                    xk=(   0.56667,   0.14167,   0.14167  )

     Band symmetry, C_s (m)     point group:

     e(  1 -  1) =     -4.43057  eV     1   --> A'             
     e(  2 -  2) =      1.16822  eV     1   --> A'             
     e(  3 -  3) =      3.44608  eV     1   --> A'             
     e(  4 -  4) =      3.83489  eV     1   --> A''            
     e(  5 -  5) =      7.39796  eV     1   --> A'             
     e(  6 -  6) =      9.16552  eV     1   --> A'             
     e(  7 -  7) =     10.89851  eV     1   --> A'             
     e(  8 -  8) =     11.36067  eV     1   --> A''            

 **************************************************************************

 **************************************************************************

                    xk=(   0.53333,   0.13333,   0.13333  )

     Band symmetry, C_s (m)     point group:

     e(  1 -  1) =     -4.59388  eV     1   --> A'             
     e(  2 -  2) =      1.44814  eV     1   --> A'             
     e(  3 -  3) =      3.63409  eV     1   --> A'             
     e(  4 -  4) =      3.92787  eV     1   --> A''            
     e(  5 -  5) =      7.45016  eV     1   --> A'             
     e(  6 -  6) =      9.26003  eV     1   --> A'             
     e(  7 -  7) =     10.71869  eV     1   --> A'             
     e(  8 -  8) =     11.18568  eV     1   --> A''            

 **************************************************************************

 **************************************************************************

                    xk=(   0.50000,   0.12500,   0.12500  )

     Band symmetry, C_s (m)     point group:

     e(  1 -  1) =     -4.74881  eV     1   --> A'             
     e(  2 -  2) =      1.73462  eV     1   --> A'             
     e(  3 -  3) =      3.82220  eV     1   --> A'             
     e(  4 -  4) =      4.02908  eV     1   --> A''            
     e(  5 -  5) =      7.50166  eV     1   --> A'             
     e(  6 -  6) =      9.36549  eV     1   --> A'             
     e(  7 -  7) =     10.55390  eV     1   --> A'             
     e(  8 -  8) =     11.00190  eV     1   --> A''            

 **************************************************************************

 **************************************************************************

                    xk=(   0.46667,   0.11667,   0.11667  )

     Band symmetry, C_s (m)     point group:

     e(  1 -  1) =     -4.89497  eV     1   --> A'             
     e(  2 -  2) =      2.02731  eV     1   --> A'             
     e(  3 -  3) =      4.00931  eV     1   --> A'             
     e(  4 -  4) =      4.13821  eV     1   --> A''            
     e(  5 -  5) =      7.55339  eV     1   --> A'             
     e(  6 -  6) =      9.46604  eV     1   --> A'             
     e(  7 -  7) =     10.41592  eV     1   --> A'             
     e(  8 -  8) =     10.80859  eV     1   --> A''            

 **************************************************************************

 **************************************************************************

                    xk=(   0.43333,   0.10833,   0.10833  )

     Band symmetry, C_s (m)     point group:

     e(  1 -  1) =     -5.03206  eV     1   --> A'             
     e(  2 -  2) =      2.32577  eV     1   --> A'             
     e(  3 -  3) =      4.19433  eV     1   --> A'             
     e(  4 -  4) =      4.25487  eV     1   --> A''            
     e(  5 -  5) =      7.60644  eV     1   --> A'             
     e(  6 -  6) =      9.53283  eV     1   --> A'             
     e(  7 -  7) =     10.32715  eV     1   --> A'             
     e(  8 -  8) =     10.60571  eV     1   --> A''            

 **************************************************************************

 **************************************************************************

                    xk=(   0.40000,   0.10000,   0.10000  )

     Band symmetry, C_s (m)     point group:

     e(  1 -  1) =     -5.15979  eV     1   --> A'             
     e(  2 -  2) =      2.62950  eV     1   --> A'             
     e(  3 -  3) =      4.37617  eV     1   --> A'             
     e(  4 -  4) =      4.37857  eV     1   --> A''            
     e(  5 -  5) =      7.66181  eV     1   --> A'             
     e(  6 -  6) =      9.53145  eV     1   --> A'             
     e(  7 -  7) =     10.31175  eV     1   --> A'             
     e(  8 -  8) =     10.39396  eV     1   --> A''            

 **************************************************************************

 **************************************************************************

                    xk=(   0.36667,   0.09167,   0.09167  )

     Band symmetry, C_s (m)     point group:

     e(  1 -  1) =     -5.27797  eV     1   --> A'             
     e(  2 -  2) =      2.93784  eV     1   --> A'             
     e(  3 -  3) =      4.50866  eV     1   --> A''            
     e(  4 -  4) =      4.55371  eV     1   --> A'             
     e(  5 -  5) =      7.72026  eV     1   --> A'             
     e(  6 -  6) =      9.45841  eV     1   --> A'             
     e(  7 -  7) =     10.17484  eV     1   --> A''            
     e(  8 -  8) =     10.35614  eV     1   --> A'             

 **************************************************************************

 **************************************************************************

                    xk=(   0.33333,   0.08333,   0.08333  )

     Band symmetry, C_s (m)     point group:

     e(  1 -  1) =     -5.38639  eV     1   --> A'             
     e(  2 -  2) =      3.24997  eV     1   --> A'             
     e(  3 -  3) =      4.64434  eV     1   --> A''            
     e(  4 -  4) =      4.72575  eV     1   --> A'             
     e(  5 -  5) =      7.78215  eV     1   --> A'             
     e(  6 -  6) =      9.34250  eV     1   --> A'             
     e(  7 -  7) =      9.95050  eV     1   --> A''            
     e(  8 -  8) =     10.40341  eV     1   --> A'             

 **************************************************************************

 **************************************************************************

                    xk=(   0.30000,   0.07500,   0.07500  )

     Band symmetry, C_s (m)     point group:

     e(  1 -  1) =     -5.48490  eV     1   --> A'             
     e(  2 -  2) =      3.56475  eV     1   --> A'             
     e(  3 -  3) =      4.78452  eV     1   --> A''            
     e(  4 -  4) =      4.89103  eV     1   --> A'             
     e(  5 -  5) =      7.84737  eV     1   --> A'             
     e(  6 -  6) =      9.20861  eV     1   --> A'             
     e(  7 -  7) =      9.72366  eV     1   --> A''            
     e(  8 -  8) =     10.39058  eV     1   --> A'             

 **************************************************************************

 **************************************************************************

                    xk=(   0.26667,   0.06667,   0.06667  )

     Band symmetry, C_s (m)     point group:

     e(  1 -  1) =     -5.57336  eV     1   --> A'             
     e(  2 -  2) =      3.88067  eV     1   --> A'             
     e(  3 -  3) =      4.92778  eV     1   --> A''            
     e(  4 -  4) =      5.04811  eV     1   --> A'             
     e(  5 -  5) =      7.91528  eV     1   --> A'             
     e(  6 -  6) =      9.06999  eV     1   --> A'             
     e(  7 -  7) =      9.49750  eV     1   --> A''            
     e(  8 -  8) =     10.27875  eV     1   --> A'             

 **************************************************************************

 **************************************************************************

                    xk=(   0.23333,   0.05833,   0.05833  )

     Band symmetry, C_s (m)     point group:

     e(  1 -  1) =     -5.65165  eV     1   --> A'             
     e(  2 -  2) =      4.19554  eV     1   --> A'             
     e(  3 -  3) =      5.07221  eV     1   --> A''            
     e(  4 -  4) =      5.19537  eV     1   --> A'             
     e(  5 -  5) =      7.98468  eV     1   --> A'             
     e(  6 -  6) =      8.93363  eV     1   --> A'             
     e(  7 -  7) =      9.27568  eV     1   --> A''            
     e(  8 -  8) =     10.07516  eV     1   --> A'             

 **************************************************************************

 **************************************************************************

                    xk=(   0.20000,   0.05000,   0.05000  )

     Band symmetry, C_s (m)     point group:

     e(  1 -  1) =     -5.71968  eV     1   --> A'             
     e(  2 -  2) =      4.50623  eV     1   --> A'             
     e(  3 -  3) =      5.21523  eV     1   --> A''            
     e(  4 -  4) =      5.33094  eV     1   --> A'             
     e(  5 -  5) =      8.05374  eV     1   --> A'             
     e(  6 -  6) =      8.80374  eV     1   --> A'             
     e(  7 -  7) =      9.06237  eV     1   --> A''            
     e(  8 -  8) =      9.81520  eV     1   --> A'             

 **************************************************************************

 **************************************************************************

                    xk=(   0.16667,   0.04167,   0.04167  )

     Band symmetry, C_s (m)     point group:

     e(  1 -  1) =     -5.77738  eV     1   --> A'             
     e(  2 -  2) =      4.80804  eV     1   --> A'             
     e(  3 -  3) =      5.35334  eV     1   --> A''            
     e(  4 -  4) =      5.45266  eV     1   --> A'             
     e(  5 -  5) =      8.12006  eV     1   --> A'             
     e(  6 -  6) =      8.68329  eV     1   --> A'             
     e(  7 -  7) =      8.86247  eV     1   --> A''            
     e(  8 -  8) =      9.53277  eV     1   --> A'             

 **************************************************************************

 **************************************************************************

                    xk=(   0.13333,   0.03333,   0.03333  )

     Band symmetry, C_s (m)     point group:

     e(  1 -  1) =     -5.82467  eV     1   --> A'             
     e(  2 -  2) =      5.09369  eV     1   --> A'             
     e(  3 -  3) =      5.48180  eV     1   --> A''            
     e(  4 -  4) =      5.55802  eV     1   --> A'             
     e(  5 -  5) =      8.18075  eV     1   --> A'             
     e(  6 -  6) =      8.57438  eV     1   --> A'             
     e(  7 -  7) =      8.68191  eV     1   --> A''            
     e(  8 -  8) =      9.25385  eV     1   --> A'             

 **************************************************************************

 **************************************************************************

                    xk=(   0.10000,   0.02500,   0.02500  )

     Band symmetry, C_s (m)     point group:

     e(  1 -  1) =     -5.86150  eV     1   --> A'             
     e(  2 -  2) =      5.35183  eV     1   --> A'             
     e(  3 -  3) =      5.59446  eV     1   --> A''            
     e(  4 -  4) =      5.64429  eV     1   --> A'             
     e(  5 -  5) =      8.23257  eV     1   --> A'             
     e(  6 -  6) =      8.47812  eV     1   --> A'             
     e(  7 -  7) =      8.52779  eV     1   --> A''            
     e(  8 -  8) =      9.00164  eV     1   --> A'             

 **************************************************************************

 **************************************************************************

                    xk=(   0.06667,   0.01667,   0.01667  )

     Band symmetry, C_s (m)     point group:

     e(  1 -  1) =     -5.88784  eV     1   --> A'             
     e(  2 -  2) =      5.56516  eV     1   --> A'             
     e(  3 -  3) =      5.68378  eV     1   --> A''            
     e(  4 -  4) =      5.70862  eV     1   --> A'             
     e(  5 -  5) =      8.27233  eV     1   --> A'             
     e(  6 -  6) =      8.39515  eV     1   --> A'             
     e(  7 -  7) =      8.40835  eV     1   --> A''            
     e(  8 -  8) =      8.80125  eV     1   --> A'             

 **************************************************************************

 **************************************************************************

                    xk=(   0.03333,   0.00833,   0.00833  )

     Band symmetry, C_s (m)     point group:

     e(  1 -  1) =     -5.90365  eV     1   --> A'             
     e(  2 -  2) =      5.70998  eV     1   --> A'             
     e(  3 -  3) =      5.74177  eV     1   --> A''            
     e(  4 -  4) =      5.74845  eV     1   --> A'             
     e(  5 -  5) =      8.29729  eV     1   --> A'             
     e(  6 -  6) =      8.33146  eV     1   --> A'             
     e(  7 -  7) =      8.33209  eV     1   --> A''            
     e(  8 -  8) =      8.67601  eV     1   --> A'             

 **************************************************************************

 **************************************************************************

                    xk=(   0.00000,   0.00000,   0.00000  )

     point group O_h (m-3m) 
     there are 10 classes
     the character table:

       E     8C3   3C2   6C4   6C2'  i     8S6   3s_h  6S4   6s_d 
A_1g   1.00  1.00  1.00  1.00  1.00  1.00  1.00  1.00  1.00  1.00
A_2g   1.00  1.00  1.00 -1.00 -1.00  1.00  1.00  1.00 -1.00 -1.00
E_g    2.00 -1.00  2.00  0.00  0.00  2.00 -1.00  2.00  0.00  0.00
T_1g   3.00  0.00 -1.00  1.00 -1.00  3.00  0.00 -1.00  1.00 -1.00
T_2g   3.00  0.00 -1.00 -1.00  1.00  3.00  0.00 -1.00 -1.00  1.00
A_1u   1.00  1.00  1.00  1.00  1.00 -1.00 -1.00 -1.00 -1.00 -1.00
A_2u   1.00  1.00  1.00 -1.00 -1.00 -1.00 -1.00 -1.00  1.00  1.00
E_u    2.00 -1.00  2.00  0.00  0.00 -2.00  1.00 -2.00  0.00  0.00
T_1u   3.00  0.00 -1.00  1.00 -1.00 -3.00  0.00  1.00 -1.00  1.00
T_2u   3.00  0.00 -1.00 -1.00  1.00 -3.00  0.00  1.00  1.00 -1.00

     the symmetry operations in each class and the name of the first element:

     E        1
                                                                 
     8C3     17   19   20   18   24   21   22   23
                                                                 
     3C2      2    4    3
                                                                 
     6C4      7    8   15   16   12   11
                                                                 
     6C2'     5    6   14   13   10    9
                                                                 
     i       25
                                                                 
     8S6     41   43   44   42   48   45   46   47
                                                                 
     3s_h    26   28   27
                                                                 
     6S4     31   32   39   40   36   35
                                                                 
     6s_d    29   30   38   37   34   33
                                                                 

     Band symmetry, O_h (m-3m)  point group:

     e(  1 -  1) =     -5.90892  eV     1   --> A_1g G_1   G_1+
     e(  2 -  4) =      5.76195  eV     3   --> T_2g G_25' G_5+
     e(  5 -  7) =      8.30579  eV     3   --> T_1u G_15  G_4-
     e(  8 -  8) =      8.63469  eV     1   --> A_2u G_2'  G_2-

 **************************************************************************
 
     BANDS        :     11.19s CPU     11.46s WALL

 
   This run was terminated on:  15:48: 8  24Jul2019            

=------------------------------------------------------------------------------=
   JOB DONE.
=------------------------------------------------------------------------------=
