
     Program PWSCF v.6.4.1 starts on 24Jul2019 at 16:25:35 

     This program is part of the open-source Quantum ESPRESSO suite
     for quantum simulation of materials; please cite
         "P. Giannozzi et al., J. Phys.:Condens. Matter 21 395502 (2009);
         "P. Giannozzi et al., J. Phys.:Condens. Matter 29 465901 (2017);
          URL http://www.quantum-espresso.org", 
     in publications or presentations arising from this work. More details at
     http://www.quantum-espresso.org/quote

     Parallel version (MPI), running on     4 processors

     MPI processes distributed on     1 nodes
     R & G space division:  proc/nbgrp/npool/nimage =       4
     Reading input from nio.2_nscf.in

     Current dimensions of program PWSCF are:
     Max number of different atomic species (ntypx) = 10
     Max number of k-points (npk) =  40000
     Max angular momentum in pseudopotentials (lmaxx) =  3

     Atomic positions and unit cell read from directory:
     ./outdir/NiO.save/
 
               file O.pbe-n-kjpaw_psl.0.1.UPF: wavefunction(s)  2P renormalized

     Subspace diagonalization in iterative solution of the eigenvalue problem:
     a serial algorithm will be used

 
     Parallelization info
     --------------------
     sticks:   dense  smooth     PW     G-vecs:    dense   smooth      PW
     Min         513     206     71                11637     2965     603
     Max         514     207     73                11639     2966     604
     Sum        2055     825    287                46553    11861    2413
 


     bravais-lattice index     =            5
     lattice parameter (alat)  =       9.6715  a.u.
     unit-cell volume          =     246.2189 (a.u.)^3
     number of atoms/cell      =            4
     number of atomic types    =            3
     number of electrons       =        48.00 (up:  24.00, down:  24.00)
     number of Kohn-Sham states=           36
     kinetic-energy cutoff     =      50.0000  Ry
     charge density cutoff     =     500.0000  Ry
     Exchange-correlation      = SLA PW PBX PBC ( 1  4  3  4 0 0)

     celldm(1)=   9.671550  celldm(2)=   0.000000  celldm(3)=   0.000000
     celldm(4)=   0.833333  celldm(5)=   0.000000  celldm(6)=   0.000000

     crystal axes: (cart. coord. in units of alat)
               a(1) = (   0.288675  -0.166667   0.942809 )  
               a(2) = (   0.000000   0.333333   0.942809 )  
               a(3) = (  -0.288675  -0.166667   0.942809 )  

     reciprocal axes: (cart. coord. in units 2 pi/alat)
               b(1) = (  1.732051 -1.000000  0.353553 )  
               b(2) = (  0.000000  2.000000  0.353553 )  
               b(3) = ( -1.732051 -1.000000  0.353553 )  


     PseudoPot. # 1 for Ni read from file:
     /home/bngjn/qe/SSSP_precision_pseudos/ni_pbe_v1.4.uspp.F.UPF
     MD5 check sum: 1ee80287db30b12d2bc1f57a5b5d6409
     Pseudo is Ultrasoft + core correction, Zval = 18.0
     Generated by new atomic code, or converted to UPF format
     Using radial grid of  865 points,  6 beta functions with: 
                l(1) =   0
                l(2) =   0
                l(3) =   1
                l(4) =   1
                l(5) =   2
                l(6) =   2
     Q(r) pseudized with 10 coefficients,  rinner =    0.980   0.980   0.980
                                                       0.980   0.980

     PseudoPot. # 2 for Ni read from file:
     /home/bngjn/qe/SSSP_precision_pseudos/ni_pbe_v1.4.uspp.F.UPF
     MD5 check sum: 1ee80287db30b12d2bc1f57a5b5d6409
     Pseudo is Ultrasoft + core correction, Zval = 18.0
     Generated by new atomic code, or converted to UPF format
     Using radial grid of  865 points,  6 beta functions with: 
                l(1) =   0
                l(2) =   0
                l(3) =   1
                l(4) =   1
                l(5) =   2
                l(6) =   2
     Q(r) pseudized with 10 coefficients,  rinner =    0.980   0.980   0.980
                                                       0.980   0.980

     PseudoPot. # 3 for O  read from file:
     /home/bngjn/qe/SSSP_precision_pseudos/O.pbe-n-kjpaw_psl.0.1.UPF
     MD5 check sum: 0234752ac141de4415c5fc33072bef88
     Pseudo is Projector augmented-wave + core cor, Zval =  6.0
     Generated using "atomic" code by A. Dal Corso v.5.0.99 svn rev. 10869
     Shape of augmentation charge: BESSEL
     Using radial grid of 1095 points,  4 beta functions with: 
                l(1) =   0
                l(2) =   0
                l(3) =   1
                l(4) =   1
     Q(r) pseudized with 0 coefficients 


     atomic species   valence    mass     pseudopotential
        Ni1           18.00    58.69340     Ni( 1.00)
        Ni2           18.00    58.69340     Ni( 1.00)
        O              6.00    15.99900     O ( 1.00)

     Starting magnetic structure 
     atomic species   magnetization
        Ni1          0.200
        Ni2         -0.200
        O            0.000

     12 Sym. Ops., with inversion, found



   Cartesian axes

     site n.     atom                  positions (alat units)
         1           Ni1 tau(   1) = (   0.0000000   0.0000000   0.0000000  )
         2           Ni2 tau(   2) = (   0.0000000   0.6666667   0.4714045  )
         3           O   tau(   3) = (   0.2886751  -0.1666667   0.2357023  )
         4           O   tau(   4) = (  -0.2886751   0.1666667  -0.2357023  )

     number of k points=   189 (tetrahedron method)

     Number of k-points >= 100: set verbosity='high' to print them.

     Dense  grid:    46553 G-vectors     FFT dimensions: (  72,  72,  72)

     Smooth grid:    11861 G-vectors     FFT dimensions: (  45,  45,  45)

     Estimated max dynamical RAM per process >      53.88 MB

     Estimated total dynamical RAM >     215.51 MB
     Generating pointlists ...
     new r_m :   0.1684 (alat units)  1.6287 (a.u.) for type    1
     new r_m :   0.1684 (alat units)  1.6287 (a.u.) for type    2
     new r_m :   0.1684 (alat units)  1.6287 (a.u.) for type    3

     Check: negative core charge=   -0.000006

     The potential is recalculated from file :
     ./outdir/NiO.save/charge-density

     Starting wfcs are   34 randomized atomic wfcs +    2 random wfcs
     Checking if some PAW data can be deallocated... 

     Band Structure Calculation
     Davidson diagonalization with overlap

     ethr =  2.08E-09,  avg # of iterations = 10.4

     total cpu time spent up to now is      137.2 secs

     End of band structure calculation

     Number of k-points >= 100: set verbosity='high' to print the bands.

     the spin up/dw Fermi energies are    14.4320   14.4320 ev

     Writing output data file NiO.save/
 
     init_run     :      1.09s CPU      1.31s WALL (       1 calls)
     electrons    :    132.72s CPU    135.09s WALL (       1 calls)

     Called by init_run:
     wfcinit      :      0.00s CPU      0.00s WALL (       1 calls)
     potinit      :      0.36s CPU      0.49s WALL (       1 calls)
     hinit0       :      0.41s CPU      0.48s WALL (       1 calls)

     Called by electrons:
     c_bands      :    132.50s CPU    134.87s WALL (       1 calls)
     v_of_rho     :      0.21s CPU      0.33s WALL (       1 calls)
     newd         :      0.12s CPU      0.14s WALL (       1 calls)
     PAW_pot      :      0.10s CPU      0.11s WALL (       1 calls)

     Called by c_bands:
     init_us_2    :      0.13s CPU      0.13s WALL (     378 calls)
     cegterg      :    117.32s CPU    119.37s WALL (     378 calls)

     Called by sum_band:

     Called by *egterg:
     h_psi        :    103.18s CPU    105.27s WALL (    4684 calls)
     s_psi        :      1.00s CPU      1.01s WALL (    4684 calls)
     g_psi        :      0.14s CPU      0.14s WALL (    3928 calls)
     cdiaghg      :     15.67s CPU     15.81s WALL (    4306 calls)

     Called by h_psi:
     h_psi:pot    :    102.89s CPU    104.96s WALL (    4684 calls)
     h_psi:calbec :      2.05s CPU      2.09s WALL (    4684 calls)
     vloc_psi     :     99.60s CPU    101.62s WALL (    4684 calls)
     add_vuspsi   :      1.19s CPU      1.21s WALL (    4684 calls)

     General routines
     calbec       :      2.03s CPU      2.08s WALL (    4684 calls)
     fft          :      0.16s CPU      0.26s WALL (      23 calls)
     ffts         :      0.00s CPU      0.00s WALL (       2 calls)
     fftw         :     78.30s CPU     80.08s WALL (  205822 calls)
     interpolate  :      0.02s CPU      0.02s WALL (       2 calls)
     davcio       :      0.08s CPU      0.11s WALL (     756 calls)
 
     Parallel routines
     fft_scatt_xy :     11.94s CPU     12.16s WALL (  205847 calls)
     fft_scatt_yz :     13.30s CPU     13.65s WALL (  205847 calls)
 
     PWSCF        :   2m14.88s CPU   2m17.81s WALL

 
   This run was terminated on:  16:27:53  24Jul2019            

=------------------------------------------------------------------------------=
   JOB DONE.
=------------------------------------------------------------------------------=
