
     Program PWSCF v.6.4.1 starts on 24Jul2019 at  1:16: 6 

     This program is part of the open-source Quantum ESPRESSO suite
     for quantum simulation of materials; please cite
         "P. Giannozzi et al., J. Phys.:Condens. Matter 21 395502 (2009);
         "P. Giannozzi et al., J. Phys.:Condens. Matter 29 465901 (2017);
          URL http://www.quantum-espresso.org", 
     in publications or presentations arising from this work. More details at
     http://www.quantum-espresso.org/quote

     Parallel version (MPI), running on     4 processors

     MPI processes distributed on     1 nodes
     R & G space division:  proc/nbgrp/npool/nimage =       4
     Reading input from fe.1_vc_relax.in

     Current dimensions of program PWSCF are:
     Max number of different atomic species (ntypx) = 10
     Max number of k-points (npk) =  40000
     Max angular momentum in pseudopotentials (lmaxx) =  3
               file Fe.pbe-spn-kjpaw_psl.0.2.1.UPF: wavefunction(s)  3D renormalized

     Subspace diagonalization in iterative solution of the eigenvalue problem:
     a serial algorithm will be used

 
     Parallelization info
     --------------------
     sticks:   dense  smooth     PW     G-vecs:    dense   smooth      PW
     Min         132      66     22                 1926      682     138
     Max         133      67     23                 1927      684     139
     Sum         531     265     91                 7707     2731     555
 


     bravais-lattice index     =            3
     lattice parameter (alat)  =       5.4169  a.u.
     unit-cell volume          =      79.4740 (a.u.)^3
     number of atoms/cell      =            1
     number of atomic types    =            1
     number of electrons       =        16.00
     number of Kohn-Sham states=           12
     kinetic-energy cutoff     =      40.0000  Ry
     charge density cutoff     =     320.0000  Ry
     convergence threshold     =      1.0E-08
     mixing beta               =       0.7000
     number of iterations used =            8  plain     mixing
     Exchange-correlation      = SLA PW PBX PBC ( 1  4  3  4 0 0)
     nstep                     =           50


     celldm(1)=   5.416911  celldm(2)=   0.000000  celldm(3)=   0.000000
     celldm(4)=   0.000000  celldm(5)=   0.000000  celldm(6)=   0.000000

     crystal axes: (cart. coord. in units of alat)
               a(1) = (   0.500000   0.500000   0.500000 )  
               a(2) = (  -0.500000   0.500000   0.500000 )  
               a(3) = (  -0.500000  -0.500000   0.500000 )  

     reciprocal axes: (cart. coord. in units 2 pi/alat)
               b(1) = (  1.000000  0.000000  1.000000 )  
               b(2) = ( -1.000000  1.000000  0.000000 )  
               b(3) = (  0.000000 -1.000000  1.000000 )  


     PseudoPot. # 1 for Fe read from file:
     /home/bngjn/qe/SSSP_precision_pseudos/Fe.pbe-spn-kjpaw_psl.0.2.1.UPF
     MD5 check sum: e86618425769142926afa95317d90200
     Pseudo is Projector augmented-wave + core cor, Zval = 16.0
     Generated using "atomic" code by A. Dal Corso v.5.0.99 svn rev. 10869
     Shape of augmentation charge: PSQ
     Using radial grid of 1191 points,  6 beta functions with: 
                l(1) =   0
                l(2) =   0
                l(3) =   1
                l(4) =   1
                l(5) =   2
                l(6) =   2
     Q(r) pseudized with 0 coefficients 


     atomic species   valence    mass     pseudopotential
        Fe            16.00    55.84500     Fe( 1.00)

     Starting magnetic structure 
     atomic species   magnetization
        Fe           0.100

     48 Sym. Ops., with inversion, found



   Cartesian axes

     site n.     atom                  positions (alat units)
         1           Fe  tau(   1) = (   0.0000000   0.0000000   0.0000000  )

     number of k points=    29  Marzari-Vanderbilt smearing, width (Ry)=  0.0100
                       cart. coord. in units 2pi/alat
        k(    1) = (   0.0000000   0.0000000   0.0000000), wk =   0.0019531
        k(    2) = (   0.0000000  -0.1250000   0.1250000), wk =   0.0234375
        k(    3) = (   0.0000000  -0.2500000   0.2500000), wk =   0.0234375
        k(    4) = (   0.0000000  -0.3750000   0.3750000), wk =   0.0234375
        k(    5) = (   0.0000000   0.5000000  -0.5000000), wk =   0.0117188
        k(    6) = (  -0.1250000  -0.1250000   0.2500000), wk =   0.0468750
        k(    7) = (  -0.1250000  -0.2500000   0.3750000), wk =   0.0937500
        k(    8) = (  -0.1250000   0.6250000  -0.5000000), wk =   0.0937500
        k(    9) = (  -0.2500000   0.7500000  -0.5000000), wk =   0.0468750
        k(   10) = (  -0.2500000   0.6250000  -0.3750000), wk =   0.0468750
        k(   11) = (   0.0000000   0.0000000   0.2500000), wk =   0.0117188
        k(   12) = (   0.0000000  -0.1250000   0.3750000), wk =   0.0468750
        k(   13) = (   0.0000000  -0.2500000   0.5000000), wk =   0.0468750
        k(   14) = (   0.0000000   0.6250000  -0.3750000), wk =   0.0234375
        k(   15) = (  -0.1250000  -0.1250000   0.5000000), wk =   0.0468750
        k(   16) = (  -0.1250000   0.7500000  -0.3750000), wk =   0.0937500
        k(   17) = (  -0.2500000   0.2500000   0.2500000), wk =   0.0156250
        k(   18) = (  -0.2500000   0.7500000  -0.2500000), wk =   0.0156250
        k(   19) = (   0.6250000  -0.6250000   0.2500000), wk =   0.0468750
        k(   20) = (   0.5000000  -0.5000000   0.2500000), wk =   0.0234375
        k(   21) = (   0.5000000  -0.6250000   0.3750000), wk =   0.0468750
        k(   22) = (   0.0000000   0.0000000   0.5000000), wk =   0.0117188
        k(   23) = (   0.0000000  -0.1250000   0.6250000), wk =   0.0468750
        k(   24) = (   0.0000000   0.7500000  -0.2500000), wk =   0.0234375
        k(   25) = (  -0.1250000   0.8750000  -0.2500000), wk =   0.0468750
        k(   26) = (   0.5000000  -0.5000000   0.5000000), wk =   0.0039062
        k(   27) = (   0.0000000   0.0000000   0.7500000), wk =   0.0117188
        k(   28) = (   0.0000000   0.8750000  -0.1250000), wk =   0.0234375
        k(   29) = (   0.0000000   0.0000000  -1.0000000), wk =   0.0019531

     Dense  grid:     7707 G-vectors     FFT dimensions: (  27,  27,  27)

     Smooth grid:     2731 G-vectors     FFT dimensions: (  20,  20,  20)

     Estimated max dynamical RAM per process >      11.30 MB

     Estimated total dynamical RAM >      45.19 MB
     Generating pointlists ...
     new r_m :   0.3572 (alat units)  1.9351 (a.u.) for type    1

     Check: negative core charge=   -0.000302

     Initial potential from superposition of free atoms

     starting charge   15.99956, renormalised to   16.00000
     Starting wfcs are   13 randomized atomic wfcs
     Checking if some PAW data can be deallocated... 

     total cpu time spent up to now is        1.7 secs

     Self-consistent Calculation

     iteration #  1     ecut=    40.00 Ry     beta= 0.70
     Davidson diagonalization with overlap
     ethr =  1.00E-02,  avg # of iterations =  3.3

     Threshold (ethr) on eigenvalues was too large:
     Diagonalizing with lowered threshold

     Davidson diagonalization with overlap
     ethr =  1.85E-04,  avg # of iterations =  2.7

     total cpu time spent up to now is        2.7 secs

     total energy              =    -329.16793494 Ry
     Harris-Foulkes estimate   =    -329.17117648 Ry
     estimated scf accuracy    <       0.03042418 Ry

     total magnetization       =     1.88 Bohr mag/cell
     absolute magnetization    =     1.89 Bohr mag/cell

     iteration #  2     ecut=    40.00 Ry     beta= 0.70
     Davidson diagonalization with overlap
     ethr =  1.90E-04,  avg # of iterations =  2.2

     total cpu time spent up to now is        3.6 secs

     total energy              =    -329.17002234 Ry
     Harris-Foulkes estimate   =    -329.19383950 Ry
     estimated scf accuracy    <       0.07768014 Ry

     total magnetization       =     2.17 Bohr mag/cell
     absolute magnetization    =     2.19 Bohr mag/cell

     iteration #  3     ecut=    40.00 Ry     beta= 0.70
     Davidson diagonalization with overlap
     ethr =  1.90E-04,  avg # of iterations =  2.0

     total cpu time spent up to now is        4.2 secs

     total energy              =    -329.18425673 Ry
     Harris-Foulkes estimate   =    -329.18206688 Ry
     estimated scf accuracy    <       0.00233347 Ry

     total magnetization       =     1.96 Bohr mag/cell
     absolute magnetization    =     2.04 Bohr mag/cell

     iteration #  4     ecut=    40.00 Ry     beta= 0.70
     Davidson diagonalization with overlap
     ethr =  1.46E-05,  avg # of iterations =  2.3

     total cpu time spent up to now is        4.7 secs

     total energy              =    -329.18544995 Ry
     Harris-Foulkes estimate   =    -329.18527706 Ry
     estimated scf accuracy    <       0.00012340 Ry

     total magnetization       =     2.01 Bohr mag/cell
     absolute magnetization    =     2.14 Bohr mag/cell

     iteration #  5     ecut=    40.00 Ry     beta= 0.70
     Davidson diagonalization with overlap
     ethr =  7.71E-07,  avg # of iterations =  2.7

     total cpu time spent up to now is        5.3 secs

     total energy              =    -329.18553660 Ry
     Harris-Foulkes estimate   =    -329.18551805 Ry
     estimated scf accuracy    <       0.00008103 Ry

     total magnetization       =     2.04 Bohr mag/cell
     absolute magnetization    =     2.19 Bohr mag/cell

     iteration #  6     ecut=    40.00 Ry     beta= 0.70
     Davidson diagonalization with overlap
     ethr =  5.06E-07,  avg # of iterations =  2.0

     total cpu time spent up to now is        5.8 secs

     total energy              =    -329.18319930 Ry
     Harris-Foulkes estimate   =    -329.18567843 Ry
     estimated scf accuracy    <       0.00009656 Ry

     total magnetization       =     2.11 Bohr mag/cell
     absolute magnetization    =     2.27 Bohr mag/cell

     iteration #  7     ecut=    40.00 Ry     beta= 0.70
     Davidson diagonalization with overlap
     ethr =  5.06E-07,  avg # of iterations =  2.4

     total cpu time spent up to now is        6.3 secs

     total energy              =    -329.18419386 Ry
     Harris-Foulkes estimate   =    -329.18447618 Ry
     estimated scf accuracy    <       0.00075029 Ry

     total magnetization       =     1.98 Bohr mag/cell
     absolute magnetization    =     2.11 Bohr mag/cell

     iteration #  8     ecut=    40.00 Ry     beta= 0.70
     Davidson diagonalization with overlap
     ethr =  5.06E-07,  avg # of iterations =  2.5

     total cpu time spent up to now is        6.9 secs

     total energy              =    -329.18560046 Ry
     Harris-Foulkes estimate   =    -329.18567495 Ry
     estimated scf accuracy    <       0.00014692 Ry

     total magnetization       =     2.21 Bohr mag/cell
     absolute magnetization    =     2.36 Bohr mag/cell

     iteration #  9     ecut=    40.00 Ry     beta= 0.70
     Davidson diagonalization with overlap
     ethr =  5.06E-07,  avg # of iterations =  2.0

     total cpu time spent up to now is        7.4 secs

     total energy              =    -329.18630192 Ry
     Harris-Foulkes estimate   =    -329.18611057 Ry
     estimated scf accuracy    <       0.00004254 Ry

     total magnetization       =     2.32 Bohr mag/cell
     absolute magnetization    =     2.48 Bohr mag/cell

     iteration # 10     ecut=    40.00 Ry     beta= 0.70
     Davidson diagonalization with overlap
     ethr =  2.66E-07,  avg # of iterations =  1.2

     total cpu time spent up to now is        7.9 secs

     total energy              =    -329.18631018 Ry
     Harris-Foulkes estimate   =    -329.18630809 Ry
     estimated scf accuracy    <       0.00008123 Ry

     total magnetization       =     2.31 Bohr mag/cell
     absolute magnetization    =     2.46 Bohr mag/cell

     iteration # 11     ecut=    40.00 Ry     beta= 0.70
     Davidson diagonalization with overlap
     ethr =  2.66E-07,  avg # of iterations =  1.0

     total cpu time spent up to now is        8.4 secs

     total energy              =    -329.18635219 Ry
     Harris-Foulkes estimate   =    -329.18631052 Ry
     estimated scf accuracy    <       0.00007988 Ry

     total magnetization       =     2.32 Bohr mag/cell
     absolute magnetization    =     2.47 Bohr mag/cell

     iteration # 12     ecut=    40.00 Ry     beta= 0.70
     Davidson diagonalization with overlap
     ethr =  2.66E-07,  avg # of iterations =  1.1

     total cpu time spent up to now is        8.8 secs

     total energy              =    -329.18631311 Ry
     Harris-Foulkes estimate   =    -329.18636106 Ry
     estimated scf accuracy    <       0.00004483 Ry

     total magnetization       =     2.33 Bohr mag/cell
     absolute magnetization    =     2.48 Bohr mag/cell

     iteration # 13     ecut=    40.00 Ry     beta= 0.70
     Davidson diagonalization with overlap
     ethr =  2.66E-07,  avg # of iterations =  1.5

     total cpu time spent up to now is        9.3 secs

     total energy              =    -329.18636196 Ry
     Harris-Foulkes estimate   =    -329.18637766 Ry
     estimated scf accuracy    <       0.00001211 Ry

     total magnetization       =     2.36 Bohr mag/cell
     absolute magnetization    =     2.51 Bohr mag/cell

     iteration # 14     ecut=    40.00 Ry     beta= 0.70
     Davidson diagonalization with overlap
     ethr =  7.57E-08,  avg # of iterations =  1.5

     total cpu time spent up to now is        9.8 secs

     total energy              =    -329.18639181 Ry
     Harris-Foulkes estimate   =    -329.18636594 Ry
     estimated scf accuracy    <       0.00003279 Ry

     total magnetization       =     2.37 Bohr mag/cell
     absolute magnetization    =     2.52 Bohr mag/cell

     iteration # 15     ecut=    40.00 Ry     beta= 0.70
     Davidson diagonalization with overlap
     ethr =  7.57E-08,  avg # of iterations =  1.0

     total cpu time spent up to now is       10.3 secs

     total energy              =    -329.18640324 Ry
     Harris-Foulkes estimate   =    -329.18639388 Ry
     estimated scf accuracy    <       0.00001330 Ry

     total magnetization       =     2.36 Bohr mag/cell
     absolute magnetization    =     2.51 Bohr mag/cell

     iteration # 16     ecut=    40.00 Ry     beta= 0.70
     Davidson diagonalization with overlap
     ethr =  7.57E-08,  avg # of iterations =  1.5

     total cpu time spent up to now is       10.8 secs

     total energy              =    -329.18639503 Ry
     Harris-Foulkes estimate   =    -329.18640664 Ry
     estimated scf accuracy    <       0.00000136 Ry

     total magnetization       =     2.36 Bohr mag/cell
     absolute magnetization    =     2.50 Bohr mag/cell

     iteration # 17     ecut=    40.00 Ry     beta= 0.70
     Davidson diagonalization with overlap
     ethr =  8.49E-09,  avg # of iterations =  2.0

     total cpu time spent up to now is       11.3 secs

     total energy              =    -329.18639682 Ry
     Harris-Foulkes estimate   =    -329.18639709 Ry
     estimated scf accuracy    <       0.00000907 Ry

     total magnetization       =     2.36 Bohr mag/cell
     absolute magnetization    =     2.51 Bohr mag/cell

     iteration # 18     ecut=    40.00 Ry     beta= 0.70
     Davidson diagonalization with overlap
     ethr =  8.49E-09,  avg # of iterations =  2.1

     total cpu time spent up to now is       12.0 secs

     total energy              =    -329.18640524 Ry
     Harris-Foulkes estimate   =    -329.18640484 Ry
     estimated scf accuracy    <       0.00000064 Ry

     total magnetization       =     2.35 Bohr mag/cell
     absolute magnetization    =     2.50 Bohr mag/cell

     iteration # 19     ecut=    40.00 Ry     beta= 0.70
     Davidson diagonalization with overlap
     ethr =  4.00E-09,  avg # of iterations =  1.3

     total cpu time spent up to now is       12.5 secs

     total energy              =    -329.18640657 Ry
     Harris-Foulkes estimate   =    -329.18640541 Ry
     estimated scf accuracy    <       0.00000161 Ry

     total magnetization       =     2.35 Bohr mag/cell
     absolute magnetization    =     2.50 Bohr mag/cell

     iteration # 20     ecut=    40.00 Ry     beta= 0.70
     Davidson diagonalization with overlap
     ethr =  4.00E-09,  avg # of iterations =  1.0

     total cpu time spent up to now is       12.9 secs

     total energy              =    -329.18640741 Ry
     Harris-Foulkes estimate   =    -329.18640662 Ry
     estimated scf accuracy    <       0.00000089 Ry

     total magnetization       =     2.35 Bohr mag/cell
     absolute magnetization    =     2.50 Bohr mag/cell

     iteration # 21     ecut=    40.00 Ry     beta= 0.70
     Davidson diagonalization with overlap
     ethr =  4.00E-09,  avg # of iterations =  1.2

     total cpu time spent up to now is       13.4 secs

     total energy              =    -329.18640768 Ry
     Harris-Foulkes estimate   =    -329.18640762 Ry
     estimated scf accuracy    <       0.00000015 Ry

     total magnetization       =     2.35 Bohr mag/cell
     absolute magnetization    =     2.50 Bohr mag/cell

     iteration # 22     ecut=    40.00 Ry     beta= 0.70
     Davidson diagonalization with overlap
     ethr =  9.53E-10,  avg # of iterations =  1.0

     total cpu time spent up to now is       13.9 secs

     total energy              =    -329.18640755 Ry
     Harris-Foulkes estimate   =    -329.18640769 Ry
     estimated scf accuracy    <       0.00000009 Ry

     total magnetization       =     2.35 Bohr mag/cell
     absolute magnetization    =     2.50 Bohr mag/cell

     iteration # 23     ecut=    40.00 Ry     beta= 0.70
     Davidson diagonalization with overlap
     ethr =  5.53E-10,  avg # of iterations =  1.3

     total cpu time spent up to now is       14.4 secs

     total energy              =    -329.18640764 Ry
     Harris-Foulkes estimate   =    -329.18640756 Ry
     estimated scf accuracy    <       0.00000010 Ry

     total magnetization       =     2.35 Bohr mag/cell
     absolute magnetization    =     2.50 Bohr mag/cell

     iteration # 24     ecut=    40.00 Ry     beta= 0.70
     Davidson diagonalization with overlap
     ethr =  5.53E-10,  avg # of iterations =  1.6
 
     Magnetic moment per site:
     atom:    1    charge:   14.4497    magn:    2.4182    constr:    0.0000

     total cpu time spent up to now is       14.9 secs

     End of self-consistent calculation

 ------ SPIN UP ------------


          k = 0.0000 0.0000 0.0000 (   321 PWs)   bands (ev):

   -70.5483 -36.2477 -36.2477 -36.2477   9.2844  15.2639  15.2639  15.2639
    16.4535  16.4535  42.0563  42.0563

          k = 0.0000-0.1250 0.1250 (   341 PWs)   bands (ev):

   -70.5385 -36.3473 -36.2914 -36.2910   9.9089  15.1031  15.2421  15.5919
    16.3208  16.4664  38.7596  41.0530

          k = 0.0000-0.2500 0.2500 (   346 PWs)   bands (ev):

   -70.5149 -36.4771 -36.3506 -36.2985  11.5254  14.7293  15.1908  16.2934
    16.4429  16.5171  33.2916  38.6350

          k = 0.0000-0.3750 0.3750 (   342 PWs)   bands (ev):

   -70.4912 -36.5860 -36.3983 -36.2899  12.6993  14.3735  16.2962  16.5919
    16.8083  17.3953  27.8417  36.6937

          k = 0.0000 0.5000-0.5000 (   340 PWs)   bands (ev):

   -70.4813 -36.6353 -36.4159 -36.2909  12.7574  14.2308  16.5038  16.6303
    17.8295  18.8631  24.5736  35.9675

          k =-0.1250-0.1250 0.2500 (   343 PWs)   bands (ev):

   -70.5218 -36.4405 -36.3193 -36.3028  11.0691  14.9336  14.9785  16.1835
    16.2826  16.5608  35.8897  37.1407

          k =-0.1250-0.2500 0.3750 (   345 PWs)   bands (ev):

   -70.4981 -36.5459 -36.3801 -36.3139  12.7227  14.5514  15.0601  16.2860
    16.6785  17.5603  30.7676  34.5872

          k =-0.1250 0.6250-0.5000 (   338 PWs)   bands (ev):

   -70.4813 -36.6077 -36.4189 -36.3029  13.0802  14.3217  15.9474  16.4747
    17.0644  19.6538  25.8291  33.4080

          k =-0.2500 0.7500-0.5000 (   336 PWs)   bands (ev):

   -70.4814 -36.5767 -36.4271 -36.3175  13.6626  14.3482  15.0268  16.4113
    16.8350  19.9744  28.7989  29.4756

          k =-0.2500 0.6250-0.3750 (   336 PWs)   bands (ev):

   -70.4744 -36.5770 -36.4748 -36.3154  13.7507  14.3891  15.0755  16.5716
    16.9082  22.8223  25.0934  28.5468

          k = 0.0000 0.0000 0.2500 (   345 PWs)   bands (ev):

   -70.5291 -36.3624 -36.3274 -36.3274  10.5096  15.2969  15.2969  15.5897
    15.9248  16.6589  37.9199  40.0828

          k = 0.0000-0.1250 0.3750 (   340 PWs)   bands (ev):

   -70.5064 -36.4596 -36.3661 -36.3217  12.0864  15.0566  15.0791  15.8754
    16.3679  16.9186  33.7406  37.4662

          k = 0.0000-0.2500 0.5000 (   337 PWs)   bands (ev):

   -70.4835 -36.5770 -36.4039 -36.3136  13.1000  14.7442  15.1323  16.2615
    17.3425  18.2240  28.2653  35.8836

          k = 0.0000 0.6250-0.3750 (   336 PWs)   bands (ev):

   -70.4741 -36.6174 -36.4232 -36.3212  13.0995  14.6178  15.4337  16.2542
    17.7916  20.5385  24.7085  35.3878

          k =-0.1250-0.1250 0.5000 (   336 PWs)   bands (ev):

   -70.4845 -36.5299 -36.4082 -36.3425  13.3492  14.4788  15.2381  15.9987
    16.9064  18.2078  31.4490  32.1586

          k =-0.1250 0.7500-0.3750 (   342 PWs)   bands (ev):

   -70.4689 -36.5908 -36.4749 -36.3506  13.6182  14.4826  14.9567  16.3322
    17.3636  21.1920  26.5061  30.5177

          k =-0.2500 0.2500 0.2500 (   345 PWs)   bands (ev):

   -70.5042 -36.5210 -36.3413 -36.3413  12.6028  14.5521  14.5521  16.4657
    16.4657  17.5930  33.5831  33.5831

          k =-0.2500 0.7500-0.2500 (   345 PWs)   bands (ev):

   -70.4629 -36.5566 -36.5566 -36.3558  14.1624  14.1624  14.5610  16.9581
    16.9581  24.9479  24.9479  26.7784

          k = 0.6250-0.6250 0.2500 (   338 PWs)   bands (ev):

   -70.4865 -36.5692 -36.3946 -36.3406  13.6437  14.2741  15.0077  16.5355
    16.6079  19.6497  28.6245  32.0920

          k = 0.5000-0.5000 0.2500 (   336 PWs)   bands (ev):

   -70.4792 -36.5898 -36.4267 -36.3351  13.5565  14.1845  15.7586  16.5958
    16.6472  21.9580  24.9551  31.5896

          k = 0.5000-0.6250 0.3750 (   337 PWs)   bands (ev):

   -70.4783 -36.5409 -36.4613 -36.3716  14.0096  14.4028  14.9122  16.6256
    16.6726  22.7917  26.9918  27.8961

          k = 0.0000 0.0000 0.5000 (   341 PWs)   bands (ev):

   -70.4858 -36.4590 -36.4180 -36.4180  13.1778  14.6397  15.7161  15.7161
    16.3949  17.7741  34.6109  34.8995

          k = 0.0000-0.1250 0.6250 (   337 PWs)   bands (ev):

   -70.4651 -36.5452 -36.4547 -36.4126  13.6305  14.0555  15.7281  16.1387
    17.2220  20.0753  29.5191  32.7949

          k = 0.0000 0.7500-0.2500 (   342 PWs)   bands (ev):

   -70.4565 -36.6057 -36.4758 -36.4050  13.4756  14.0268  15.6587  16.2407
    17.6998  23.1300  25.3278  31.9274

          k =-0.1250 0.8750-0.2500 (   337 PWs)   bands (ev):

   -70.4513 -36.5666 -36.5113 -36.4169  13.5746  13.6189  15.7834  16.8528
    17.4207  23.4455  27.9189  28.4330

          k = 0.5000-0.5000 0.5000 (   336 PWs)   bands (ev):

   -70.4770 -36.4639 -36.4639 -36.4639  14.4801  14.4801  14.4801  16.6640
    16.6640  26.4090  26.4090  26.4090

          k = 0.0000 0.0000 0.7500 (   338 PWs)   bands (ev):

   -70.4466 -36.5233 -36.5033 -36.5033  13.3559  13.3741  16.7894  16.7894
    17.2231  22.6954  30.3159  30.3159

          k = 0.0000 0.8750-0.1250 (   350 PWs)   bands (ev):

   -70.4388 -36.5828 -36.5468 -36.4988  13.1124  13.1527  16.9281  17.1036
    17.6089  26.0181  26.8211  29.1071

          k = 0.0000 0.0000-1.0000 (   370 PWs)   bands (ev):

   -70.4314 -36.5892 -36.5892 -36.5892  12.8617  12.8617  17.5715  17.5715
    17.5715  27.8127  27.8127  27.8127

 ------ SPIN DOWN ----------


          k = 0.0000 0.0000 0.0000 (   321 PWs)   bands (ev):

   -67.6980 -33.4558 -33.4558 -33.4558   9.4207  17.3817  17.3817  17.3817
    19.3415  19.3415  41.7394  41.7394

          k = 0.0000-0.1250 0.1250 (   341 PWs)   bands (ev):

   -67.6873 -33.5587 -33.4986 -33.4964  10.0512  17.1824  17.3302  17.7444
    19.1513  19.3574  38.8994  40.9074

          k = 0.0000-0.2500 0.2500 (   346 PWs)   bands (ev):

   -67.6611 -33.7047 -33.5617 -33.5028  11.7664  16.7242  17.0911  18.6951
    19.0108  19.4262  33.8846  38.5995

          k = 0.0000-0.3750 0.3750 (   342 PWs)   bands (ev):

   -67.6349 -33.8316 -33.6140 -33.4948  13.6540  16.2942  17.5243  19.1490
    19.5361  19.7813  28.8330  36.6117

          k = 0.0000 0.5000-0.5000 (   340 PWs)   bands (ev):

   -67.6241 -33.8879 -33.6334 -33.4958  14.1129  16.1233  18.8434  19.2086
    19.5948  20.2869  26.0598  35.8525

          k =-0.1250-0.1250 0.2500 (   343 PWs)   bands (ev):

   -67.6688 -33.6624 -33.5292 -33.5091  11.2453  16.9446  17.0142  18.4797
    18.9254  19.4615  36.2615  37.4730

          k =-0.1250-0.2500 0.3750 (   345 PWs)   bands (ev):

   -67.6426 -33.7831 -33.5948 -33.5206  13.2441  16.4844  16.7774  18.9448
    19.5074  19.7934  31.5096  34.9967

          k =-0.1250 0.6250-0.5000 (   338 PWs)   bands (ev):

   -67.6241 -33.8563 -33.6388 -33.5107  14.3964  16.1961  17.4762  19.1429
    19.6930  21.1943  27.0218  33.8003

          k =-0.2500 0.7500-0.5000 (   336 PWs)   bands (ev):

   -67.6241 -33.8195 -33.6514 -33.5275  14.8524  16.1525  16.6179  19.0555
    19.6027  21.6946  29.6290  30.1830

          k =-0.2500 0.6250-0.3750 (   336 PWs)   bands (ev):

   -67.6164 -33.8196 -33.7047 -33.5264  15.3107  16.1583  16.6695  19.2383
    19.5766  23.9255  26.2900  29.2941

          k = 0.0000 0.0000 0.2500 (   345 PWs)   bands (ev):

   -67.6769 -33.5761 -33.5358 -33.5358  10.6622  17.3725  17.3725  17.7467
    18.6342  19.5874  38.0529  40.3622

          k = 0.0000-0.1250 0.3750 (   340 PWs)   bands (ev):

   -67.6518 -33.6881 -33.5799 -33.5327  12.3654  17.0754  17.1516  18.3262
    18.6082  19.7766  34.3279  37.6990

          k = 0.0000-0.2500 0.5000 (   337 PWs)   bands (ev):

   -67.6266 -33.8204 -33.6230 -33.5249  14.1321  16.6985  16.9118  18.7190
    19.7193  20.3127  29.2079  36.1033

          k = 0.0000 0.6250-0.3750 (   336 PWs)   bands (ev):

   -67.6161 -33.8679 -33.6444 -33.5312  14.5589  16.5468  17.2659  18.7892
    20.2436  21.6109  26.1159  35.5327

          k =-0.1250-0.1250 0.5000 (   336 PWs)   bands (ev):

   -67.6276 -33.7677 -33.6297 -33.5561  14.0893  16.5352  17.1704  18.3345
    19.3610  20.4172  32.2056  32.7579

          k =-0.1250 0.7500-0.3750 (   342 PWs)   bands (ev):

   -67.6105 -33.8348 -33.7007 -33.5636  15.1359  16.2914  16.8743  18.7287
    19.8002  22.5711  27.5467  31.1893

          k =-0.2500 0.2500 0.2500 (   345 PWs)   bands (ev):

   -67.6493 -33.7561 -33.5506 -33.5506  12.8932  16.4658  16.4658  19.3125
    19.3125  19.7572  34.0628  34.0628

          k =-0.2500 0.7500-0.2500 (   345 PWs)   bands (ev):

   -67.6039 -33.7931 -33.7931 -33.5690  15.9681  15.9681  16.3390  19.3679
    19.3679  25.9817  25.9817  27.7004

          k = 0.6250-0.6250 0.2500 (   338 PWs)   bands (ev):

   -67.6297 -33.8126 -33.6131 -33.5513  14.6943  16.0882  16.4267  19.3489
    19.5435  21.4391  29.4418  32.5795

          k = 0.5000-0.5000 0.2500 (   336 PWs)   bands (ev):

   -67.6216 -33.8344 -33.6502 -33.5469  15.0027  15.9622  17.0884  19.4044
    19.6180  23.0601  26.2305  32.0639

          k = 0.5000-0.6250 0.3750 (   337 PWs)   bands (ev):

   -67.6206 -33.7805 -33.6869 -33.5869  15.5841  16.0269  16.3222  19.5044
    19.6051  24.0140  27.8434  28.6893

          k = 0.0000 0.0000 0.5000 (   341 PWs)   bands (ev):

   -67.6291 -33.6900 -33.6368 -33.6368  13.7617  16.9561  17.7672  17.7672
    18.6540  20.2367  35.2266  35.4833

          k = 0.0000-0.1250 0.6250 (   337 PWs)   bands (ev):

   -67.6063 -33.7843 -33.6796 -33.6346  14.9834  16.0826  17.7851  18.3162
    19.5801  21.6354  30.3110  33.3279

          k = 0.0000 0.7500-0.2500 (   342 PWs)   bands (ev):

   -67.5969 -33.8478 -33.7027 -33.6268  15.2623  15.8433  17.7060  18.4317
    20.1390  24.0959  26.4507  32.4097

          k =-0.1250 0.8750-0.2500 (   337 PWs)   bands (ev):

   -67.5912 -33.8056 -33.7444 -33.6408  15.3778  15.5192  17.7970  19.1099
    19.8033  24.4729  28.7251  29.0987

          k = 0.5000-0.5000 0.5000 (   336 PWs)   bands (ev):

   -67.6192 -33.6914 -33.6914 -33.6914  16.0318  16.0318  16.0318  19.6409
    19.6409  27.2528  27.2528  27.2528

          k = 0.0000 0.0000 0.7500 (   338 PWs)   bands (ev):

   -67.5860 -33.7599 -33.7338 -33.7338  15.0725  15.3686  18.9900  18.9900
    19.5949  23.6585  30.7394  30.7394

          k = 0.0000 0.8750-0.1250 (   350 PWs)   bands (ev):

   -67.5776 -33.8179 -33.7777 -33.7305  15.0132  15.0149  19.1856  19.3692
    20.0356  26.6513  27.4321  29.4545

          k = 0.0000 0.0000-1.0000 (   370 PWs)   bands (ev):

   -67.5696 -33.8202 -33.8202 -33.8202  14.7432  14.7432  19.9931  19.9931
    19.9931  28.0391  28.0391  28.0391

     the Fermi energy is    17.5929 ev

!    total energy              =    -329.18640773 Ry
     Harris-Foulkes estimate   =    -329.18640770 Ry
     estimated scf accuracy    <          6.7E-09 Ry

     total all-electron energy =     -2545.482943 Ry

     The total energy is the sum of the following terms:

     one-electron contribution =    -112.95676561 Ry
     hartree contribution      =      66.72003294 Ry
     xc contribution           =     -34.82938997 Ry
     ewald contribution        =    -171.98801223 Ry
     one-center paw contrib.   =     -76.13244990 Ry
     smearing contrib. (-TS)   =       0.00017704 Ry

     total magnetization       =     2.35 Bohr mag/cell
     absolute magnetization    =     2.50 Bohr mag/cell

     convergence has been achieved in  24 iterations

     Forces acting on atoms (cartesian axes, Ry/au):

     atom    1 type  1   force =     0.00000000    0.00000000    0.00000000

     Total force =     0.000000     Total SCF correction =     0.000000


     Computing stress (Cartesian axis) and pressure

          total   stress  (Ry/bohr**3)                   (kbar)     P= -674.11
  -0.00458250  -0.00000000   0.00000000       -674.11     -0.00      0.00
  -0.00000000  -0.00458250  -0.00000000         -0.00   -674.11     -0.00
   0.00000000  -0.00000000  -0.00458250          0.00     -0.00   -674.11


     BFGS Geometry Optimization

     number of scf cycles    =   1
     number of bfgs steps    =   0

     enthalpy new            =    -329.1864077259 Ry

     new trust radius        =       0.2042609829 bohr
ibrav =      3
 celldm(1) =      4.79633562
Input lattice vectors:
     0.44271870     0.44271870     0.44271870
    -0.44271870     0.44271870     0.44271870
    -0.44271870    -0.44271870     0.44271870
New lattice vectors in INITIAL alat:
     0.44271870     0.44271870     0.44271870
    -0.44271870     0.44271870     0.44271870
    -0.44271870    -0.44271870     0.44271870
New lattice vectors in NEW alat (for information only):
     0.50000000     0.50000000     0.50000000
    -0.50000000     0.50000000     0.50000000
    -0.50000000    -0.50000000     0.50000000
Discrepancy in bohr =     0.000000    0.000000    0.000000
     new conv_thr            =       0.0000000100 Ry

     new unit-cell volume =     55.16946 a.u.^3 (     8.17527 Ang^3 )
     density =     11.34309 g/cm^3

CELL_PARAMETERS (alat=  5.41691104)
   0.442718699   0.442718699   0.442718699
  -0.442718699   0.442718699   0.442718699
  -0.442718699  -0.442718699   0.442718699

ATOMIC_POSITIONS (alat)
Fe       0.000000000   0.000000000   0.000000000



     Writing output data file fe.save/
     NEW-OLD atomic charge density approx. for the potential

     Check: negative core charge=   -0.000072
     extrapolated charge    8.95150, renormalised to   16.00000

     total cpu time spent up to now is       15.6 secs

     Self-consistent Calculation

     iteration #  1     ecut=    40.00 Ry     beta= 0.70
     Davidson diagonalization with overlap
     ethr =  1.00E-06,  avg # of iterations =  6.2

     total cpu time spent up to now is       16.5 secs

     total energy              =    -308.23016705 Ry
     Harris-Foulkes estimate   =    -369.77326838 Ry
     estimated scf accuracy    <      26.35518094 Ry

     total magnetization       =     2.00 Bohr mag/cell
     absolute magnetization    =     2.01 Bohr mag/cell

     iteration #  2     ecut=    40.00 Ry     beta= 0.70
     Davidson diagonalization with overlap
     ethr =  1.00E-02,  avg # of iterations =  3.5

     total cpu time spent up to now is       17.2 secs

     total energy              =    -326.19655619 Ry
     Harris-Foulkes estimate   =    -343.38787678 Ry
     estimated scf accuracy    <      36.51690805 Ry

     total magnetization       =     0.31 Bohr mag/cell
     absolute magnetization    =     0.34 Bohr mag/cell

     iteration #  3     ecut=    40.00 Ry     beta= 0.70
     Davidson diagonalization with overlap
     ethr =  1.00E-02,  avg # of iterations =  3.1

     total cpu time spent up to now is       17.9 secs

     total energy              =    -328.80666213 Ry
     Harris-Foulkes estimate   =    -329.94432048 Ry
     estimated scf accuracy    <       2.54845771 Ry

     total magnetization       =     1.17 Bohr mag/cell
     absolute magnetization    =     1.19 Bohr mag/cell

     iteration #  4     ecut=    40.00 Ry     beta= 0.70
     Davidson diagonalization with overlap
     ethr =  1.00E-02,  avg # of iterations =  2.0

     total cpu time spent up to now is       18.4 secs

     total energy              =    -329.17588982 Ry
     Harris-Foulkes estimate   =    -329.17011853 Ry
     estimated scf accuracy    <       0.06230354 Ry

     total magnetization       =     1.54 Bohr mag/cell
     absolute magnetization    =     1.57 Bohr mag/cell

     iteration #  5     ecut=    40.00 Ry     beta= 0.70
     Davidson diagonalization with overlap
     ethr =  3.89E-04,  avg # of iterations =  3.0

     total cpu time spent up to now is       18.9 secs

     total energy              =    -329.16271625 Ry
     Harris-Foulkes estimate   =    -329.20054973 Ry
     estimated scf accuracy    <       0.07081582 Ry

     total magnetization       =     1.59 Bohr mag/cell
     absolute magnetization    =     1.61 Bohr mag/cell

     iteration #  6     ecut=    40.00 Ry     beta= 0.70
     Davidson diagonalization with overlap
     ethr =  3.89E-04,  avg # of iterations =  2.0

     total cpu time spent up to now is       19.5 secs

     total energy              =    -329.18247167 Ry
     Harris-Foulkes estimate   =    -329.18441629 Ry
     estimated scf accuracy    <       0.00496323 Ry

     total magnetization       =     1.62 Bohr mag/cell
     absolute magnetization    =     1.66 Bohr mag/cell

     iteration #  7     ecut=    40.00 Ry     beta= 0.70
     Davidson diagonalization with overlap
     ethr =  3.10E-05,  avg # of iterations =  2.9

     total cpu time spent up to now is       20.0 secs

     total energy              =    -329.18335602 Ry
     Harris-Foulkes estimate   =    -329.18359365 Ry
     estimated scf accuracy    <       0.00041043 Ry

     total magnetization       =     1.62 Bohr mag/cell
     absolute magnetization    =     1.66 Bohr mag/cell

     iteration #  8     ecut=    40.00 Ry     beta= 0.70
     Davidson diagonalization with overlap
     ethr =  2.57E-06,  avg # of iterations =  2.0

     total cpu time spent up to now is       20.6 secs

     total energy              =    -329.18347020 Ry
     Harris-Foulkes estimate   =    -329.18347432 Ry
     estimated scf accuracy    <       0.00001719 Ry

     total magnetization       =     1.62 Bohr mag/cell
     absolute magnetization    =     1.66 Bohr mag/cell

     iteration #  9     ecut=    40.00 Ry     beta= 0.70
     Davidson diagonalization with overlap
     ethr =  1.07E-07,  avg # of iterations =  2.8

     total cpu time spent up to now is       21.1 secs

     total energy              =    -329.18347282 Ry
     Harris-Foulkes estimate   =    -329.18347454 Ry
     estimated scf accuracy    <       0.00000480 Ry

     total magnetization       =     1.62 Bohr mag/cell
     absolute magnetization    =     1.66 Bohr mag/cell

     iteration # 10     ecut=    40.00 Ry     beta= 0.70
     Davidson diagonalization with overlap
     ethr =  3.00E-08,  avg # of iterations =  1.6

     total cpu time spent up to now is       21.6 secs

     total energy              =    -329.18347328 Ry
     Harris-Foulkes estimate   =    -329.18347342 Ry
     estimated scf accuracy    <       0.00000037 Ry

     total magnetization       =     1.62 Bohr mag/cell
     absolute magnetization    =     1.66 Bohr mag/cell

     iteration # 11     ecut=    40.00 Ry     beta= 0.70
     Davidson diagonalization with overlap
     ethr =  2.34E-09,  avg # of iterations =  2.8
 
     Magnetic moment per site:
     atom:    1    charge:   14.1198    magn:    1.6151    constr:    0.0000

     total cpu time spent up to now is       22.4 secs

     End of self-consistent calculation

 ------ SPIN UP ------------


          k = 0.0000 0.0000 0.0000 (   321 PWs)   bands (ev):

   -61.4455 -26.7497 -26.7497 -26.7497  16.5604  24.0199  24.0199  24.0199
    26.0497  26.0497  62.8387  62.8387

          k = 0.0000-0.1412 0.1412 (   341 PWs)   bands (ev):

   -61.4025 -26.9387 -26.8084 -26.7528  17.3876  23.7263  23.9546  24.5772
    25.8002  26.0778  52.4042  54.4318

          k = 0.0000-0.2823 0.2823 (   346 PWs)   bands (ev):

   -61.2955 -27.3809 -26.9464 -26.7566  19.2997  23.0569  23.7945  25.7827
    26.0336  26.1831  46.9389  51.7444

          k = 0.0000-0.4235 0.4235 (   342 PWs)   bands (ev):

   -61.1865 -27.8110 -27.0818 -26.7601  20.0892  22.4355  25.4791  26.2561
    26.3455  27.7037  41.1762  49.1906

          k = 0.0000 0.5647-0.5647 (   340 PWs)   bands (ev):

   -61.1410 -27.9861 -27.1374 -26.7618  19.9569  22.1904  26.2092  26.4313
    27.7681  28.4838  38.0488  48.2054

          k =-0.1412-0.1412 0.2823 (   343 PWs)   bands (ev):

   -61.3269 -27.2406 -26.8777 -26.7966  18.8344  23.4093  23.4470  25.5543
    25.7480  26.2693  49.4136  51.0923

          k =-0.1412-0.2823 0.4235 (   345 PWs)   bands (ev):

   -61.2188 -27.6273 -27.0469 -26.8171  20.4694  22.7170  23.5647  25.7613
    26.5056  27.8103  44.1841  48.1011

          k =-0.1412 0.7059-0.5647 (   338 PWs)   bands (ev):

   -61.1411 -27.8879 -27.1798 -26.8236  20.4735  22.3359  24.8750  26.1249
    27.0128  30.2104  39.0536  46.5257

          k =-0.2823 0.8470-0.5647 (   336 PWs)   bands (ev):

   -61.1411 -27.7567 -27.2622 -26.8788  21.4355  22.2934  23.4655  25.9858
    26.7705  31.0281  41.4821  43.0989

          k =-0.2823 0.7059-0.4235 (   336 PWs)   bands (ev):

   -61.1091 -27.7535 -27.4185 -26.8939  21.4521  22.3993  23.4585  26.2834
    26.8479  34.0772  37.8807  41.8156

          k = 0.0000 0.0000 0.2823 (   345 PWs)   bands (ev):

   -61.3606 -26.9935 -26.8682 -26.8682  18.1580  24.0447  24.0447  24.5663
    25.0356  26.4558  51.1931  54.5862

          k = 0.0000-0.1412 0.4235 (   340 PWs)   bands (ev):

   -61.2578 -27.3686 -27.0095 -26.8953  19.9203  23.5379  23.6074  24.9919
    25.8956  26.9263  47.3626  51.1655

          k = 0.0000-0.2823 0.5647 (   337 PWs)   bands (ev):

   -61.1538 -27.7668 -27.1484 -26.8898  20.6169  23.0601  23.5738  25.6884
    27.6050  28.4941  41.5600  49.0181

          k = 0.0000 0.7059-0.4235 (   336 PWs)   bands (ev):

   -61.1104 -27.9295 -27.2055 -26.8872  20.4246  22.8398  24.0270  25.7195
    28.4148  30.6428  38.0725  48.2611

          k =-0.1412-0.1412 0.5647 (   336 PWs)   bands (ev):

   -61.1592 -27.6167 -27.1898 -26.9665  21.1599  22.4636  23.8667  25.2113
    26.8696  28.7100  44.6902  46.0021

          k =-0.1412 0.8470-0.4235 (   342 PWs)   bands (ev):

   -61.0894 -27.7979 -27.3521 -26.9718  21.1874  22.5151  23.3650  25.8177
    27.6234  32.2523  39.4996  43.8922

          k =-0.2823 0.2823 0.2823 (   345 PWs)   bands (ev):

   -61.2454 -27.5573 -26.9020 -26.9020  20.6149  22.7080  22.7080  26.1034
    26.1034  27.8844  46.9060  46.9060

          k =-0.2823 0.8470-0.2823 (   345 PWs)   bands (ev):

   -61.0627 -27.6349 -27.6349 -26.9834  21.9506  21.9506  22.7953  26.9013
    26.9013  36.8432  36.8432  40.4191

          k = 0.7059-0.7059 0.2823 (   338 PWs)   bands (ev):

   -61.1627 -27.7532 -27.1265 -26.9260  21.4109  22.2488  23.4470  26.2463
    26.3845  30.6683  41.6686  45.0532

          k = 0.5647-0.5647 0.2823 (   336 PWs)   bands (ev):

   -61.1285 -27.8023 -27.2511 -26.9359  21.1577  22.1004  24.5160  26.3634
    26.4649  32.9649  38.0872  44.3679

          k = 0.5647-0.7059 0.4235 (   337 PWs)   bands (ev):

   -61.1234 -27.6568 -27.3347 -27.0423  21.8490  22.4268  23.2477  26.4141
    26.5057  34.4182  39.3050  41.2740

          k = 0.0000 0.0000 0.5647 (   341 PWs)   bands (ev):

   -61.1671 -27.4054 -27.1602 -27.1602  20.9976  22.7014  24.7131  24.7131
    25.9391  28.2287  48.0842  49.1446

          k = 0.0000-0.1412 0.7059 (   337 PWs)   bands (ev):

   -61.0751 -27.6611 -27.3080 -27.1971  21.1959  21.7440  24.7258  25.4439
    27.3843  30.9919  42.7301  46.3106

          k = 0.0000 0.8470-0.2823 (   342 PWs)   bands (ev):

   -61.0373 -27.7921 -27.3686 -27.1851  20.8255  21.7172  24.6025  25.6396
    28.2498  34.2710  38.3206  45.1033

          k =-0.1412 0.9882-0.2823 (   337 PWs)   bands (ev):

   -61.0152 -27.6894 -27.5145 -27.2343  20.9181  21.0521  24.8253  26.6786
    27.7295  35.0109  40.3486  41.4972

          k = 0.5647-0.5647 0.5647 (   336 PWs)   bands (ev):

   -61.1162 -27.3644 -27.3644 -27.3644  22.5611  22.5611  22.5611  26.4987
    26.4987  38.5501  38.5501  38.5501

          k = 0.0000 0.0000 0.8470 (   338 PWs)   bands (ev):

   -60.9958 -27.5863 -27.4645 -27.4645  20.5593  20.6237  26.5554  26.5554
    27.3930  34.0500  42.9393  42.9393

          k = 0.0000 0.9882-0.1412 (   350 PWs)   bands (ev):

   -60.9636 -27.6526 -27.5289 -27.4758  20.1467  20.2378  26.8279  27.1304
    28.0870  37.7996  39.1098  41.4486

          k = 0.0000 0.0000-1.1294 (   370 PWs)   bands (ev):

   -60.9340 -27.5945 -27.5945 -27.5945  19.7281  19.7281  28.0203  28.0203
    28.0203  39.7998  39.7998  39.7998

 ------ SPIN DOWN ----------


          k = 0.0000 0.0000 0.0000 (   321 PWs)   bands (ev):

   -59.5015 -24.8167 -24.8167 -24.8167  16.7866  25.3016  25.3016  25.3016
    28.3502  28.3502  63.2138  63.2138

          k = 0.0000-0.1412 0.1412 (   341 PWs)   bands (ev):

   -59.4562 -25.0184 -24.8785 -24.8199  17.6233  24.9795  25.2246  25.8834
    28.0298  28.3786  52.6550  54.4828

          k = 0.0000-0.2823 0.2823 (   346 PWs)   bands (ev):

   -59.3431 -25.4902 -25.0244 -24.8239  19.6480  24.2501  24.9790  27.4104
    27.8299  28.4972  47.5492  51.9153

          k = 0.0000-0.4235 0.4235 (   342 PWs)   bands (ev):

   -59.2278 -25.9478 -25.1674 -24.8276  20.9004  23.5787  26.2097  28.0980
    28.6936  29.1776  42.0499  49.3263

          k = 0.0000 0.5647-0.5647 (   340 PWs)   bands (ev):

   -59.1796 -26.1338 -25.2261 -24.8294  20.9212  23.3151  27.9816  28.2174
    28.8009  30.0116  39.1373  48.3087

          k =-0.1412-0.1412 0.2823 (   343 PWs)   bands (ev):

   -59.3763 -25.3402 -24.9522 -24.8662  19.1088  24.6175  24.7174  27.0844
    27.6605  28.5700  49.8830  51.4400

          k =-0.1412-0.2823 0.4235 (   345 PWs)   bands (ev):

   -59.2620 -25.7521 -25.1314 -24.8881  21.0458  23.8990  24.6184  27.7261
    28.6857  29.2491  44.9032  48.5086

          k =-0.1412 0.7059-0.5647 (   338 PWs)   bands (ev):

   -59.1797 -26.0292 -25.2721 -24.8952  21.4307  23.4577  25.9399  28.0879
    28.9991  31.3714  40.0237  46.9092

          k =-0.2823 0.8470-0.5647 (   336 PWs)   bands (ev):

   -59.1799 -25.8892 -25.3613 -24.9533  22.3179  23.5113  24.4458  27.9169
    28.8581  32.2356  42.2960  43.6976

          k =-0.2823 0.7059-0.4235 (   336 PWs)   bands (ev):

   -59.1459 -25.8855 -25.5278 -24.9693  22.4707  23.5317  24.5913  28.2353
    28.7996  35.0527  38.8401  42.4580

          k = 0.0000 0.0000 0.2823 (   345 PWs)   bands (ev):

   -59.4120 -25.0781 -24.9418 -24.9418  18.4109  25.2960  25.2960  25.8743
    27.1522  28.7916  51.5444  54.8068

          k = 0.0000-0.1412 0.4235 (   340 PWs)   bands (ev):

   -59.3034 -25.4773 -25.0914 -24.9713  20.3132  24.8183  24.9663  26.7082
    27.2629  29.1827  48.0064  51.5055

          k = 0.0000-0.2823 0.5647 (   337 PWs)   bands (ev):

   -59.1935 -25.9003 -25.2383 -24.9657  21.5072  24.2274  24.9022  27.4010
    29.0716  30.1669  42.4170  49.3715

          k = 0.0000 0.7059-0.4235 (   336 PWs)   bands (ev):

   -59.1476 -26.0730 -25.2987 -24.9629  21.4864  23.9903  25.4275  27.5309
    29.9385  31.7808  39.1282  48.6063

          k =-0.1412-0.1412 0.5647 (   336 PWs)   bands (ev):

   -59.1993 -25.7406 -25.2833 -25.0466  21.8809  23.9500  25.0477  26.7663
    28.4790  30.3838  45.4957  46.5377

          k =-0.1412 0.8470-0.4235 (   342 PWs)   bands (ev):

   -59.1255 -25.9323 -25.4559 -25.0520  22.3437  23.8268  24.5965  27.4358
    29.2130  33.4205  40.4187  44.5189

          k =-0.2823 0.2823 0.2823 (   345 PWs)   bands (ev):

   -59.2901 -25.6773 -24.9783 -24.9783  20.9636  23.8860  23.8860  28.3220
    28.3220  29.2072  47.4268  47.4268

          k =-0.2823 0.8470-0.2823 (   345 PWs)   bands (ev):

   -59.0973 -25.7578 -25.7578 -25.0637  23.3165  23.3165  23.8683  28.4857
    28.4857  37.8270  37.8270  41.1087

          k = 0.7059-0.7059 0.2823 (   338 PWs)   bands (ev):

   -59.2027 -25.8857 -25.2169 -25.0041  22.2560  23.3399  24.2731  28.4043
    28.7146  31.8360  42.4141  45.5470

          k = 0.5647-0.5647 0.2823 (   336 PWs)   bands (ev):

   -59.1662 -25.9381 -25.3491 -25.0149  22.1286  23.1583  25.3347  28.5087
    28.8414  33.8698  39.0505  44.8381

          k = 0.5647-0.7059 0.4235 (   337 PWs)   bands (ev):

   -59.1609 -25.7828 -25.4394 -25.1280  22.8277  23.4517  24.1204  28.6579
    28.8261  35.3479  40.0697  41.9299

          k = 0.0000 0.0000 0.5647 (   341 PWs)   bands (ev):

   -59.2078 -25.5173 -25.2514 -25.2514  21.6639  24.4650  25.9485  25.9485
    27.3180  30.1409  48.8856  49.6887

          k = 0.0000-0.1412 0.7059 (   337 PWs)   bands (ev):

   -59.1109 -25.7868 -25.4081 -25.2916  22.3654  23.2484  25.9645  26.8151
    28.8364  32.2907  43.4995  46.8435

          k = 0.0000 0.8470-0.2823 (   342 PWs)   bands (ev):

   -59.0707 -25.9251 -25.4723 -25.2791  22.1876  23.1340  25.8343  27.0468
    29.7640  35.2462  39.2309  45.6028

          k =-0.1412 0.9882-0.2823 (   337 PWs)   bands (ev):

   -59.0479 -25.8153 -25.6282 -25.3304  22.3968  22.4245  26.0458  28.0764
    29.2156  35.9617  41.1623  42.0858

          k = 0.5647-0.5647 0.5647 (   336 PWs)   bands (ev):

   -59.1530 -25.4714 -25.4714 -25.4714  23.5013  23.5013  23.5013  28.8821
    28.8821  39.2809  39.2809  39.2809

          k = 0.0000 0.0000 0.8470 (   338 PWs)   bands (ev):

   -59.0276 -25.7062 -25.5743 -25.5743  21.9749  22.0744  27.8914  27.8914
    28.8554  34.9435  43.4164  43.4164

          k = 0.0000 0.9882-0.1412 (   350 PWs)   bands (ev):

   -58.9933 -25.7749 -25.6426 -25.5868  21.5986  21.6681  28.2059  28.5188
    29.5921  38.4582  39.6981  41.8629

          k = 0.0000 0.0000-1.1294 (   370 PWs)   bands (ev):

   -58.9618 -25.7122 -25.7122 -25.7122  21.1625  21.1625  29.5216  29.5216
    29.5216  40.1177  40.1177  40.1177

     the Fermi energy is    27.1146 ev

!    total energy              =    -329.18347340 Ry
     Harris-Foulkes estimate   =    -329.18347340 Ry
     estimated scf accuracy    <          5.9E-09 Ry

     total all-electron energy =     -2545.480009 Ry

     The total energy is the sum of the following terms:

     one-electron contribution =     -78.24159805 Ry
     hartree contribution      =      54.57300508 Ry
     xc contribution           =     -35.11313645 Ry
     ewald contribution        =    -194.24073640 Ry
     one-center paw contrib.   =     -76.16117808 Ry
     smearing contrib. (-TS)   =       0.00017049 Ry

     total magnetization       =     1.62 Bohr mag/cell
     absolute magnetization    =     1.66 Bohr mag/cell

     convergence has been achieved in  11 iterations

     Forces acting on atoms (cartesian axes, Ry/au):

     atom    1 type  1   force =     0.00000000    0.00000000    0.00000000

     Total force =     0.000000     Total SCF correction =     0.000000


     Computing stress (Cartesian axis) and pressure

          total   stress  (Ry/bohr**3)                   (kbar)     P= 1283.70
   0.00872642   0.00000000  -0.00000000       1283.70      0.00     -0.00
   0.00000000   0.00872642   0.00000000          0.00   1283.70      0.00
  -0.00000000   0.00000000   0.00872642         -0.00      0.00   1283.70


     number of scf cycles    =   2
     number of bfgs steps    =   1

     enthalpy old            =    -329.1864077259 Ry
     enthalpy new            =    -329.1834733959 Ry

     CASE: enthalpy_new > enthalpy_old

     new trust radius        =       0.0939010845 bohr
ibrav =      3
 celldm(1) =      5.11373085
Input lattice vectors:
     0.47201540     0.47201540     0.47201540
    -0.47201540     0.47201540     0.47201540
    -0.47201540    -0.47201540     0.47201540
New lattice vectors in INITIAL alat:
     0.47201540     0.47201540     0.47201540
    -0.47201540     0.47201540     0.47201540
    -0.47201540    -0.47201540     0.47201540
New lattice vectors in NEW alat (for information only):
     0.50000000     0.50000000     0.50000000
    -0.50000000     0.50000000     0.50000000
    -0.50000000    -0.50000000     0.50000000
Discrepancy in bohr =     0.000000    0.000000    0.000000
     new conv_thr            =       0.0000000100 Ry

     new unit-cell volume =     66.86265 a.u.^3 (     9.90802 Ang^3 )
     density =      9.35936 g/cm^3

CELL_PARAMETERS (alat=  5.41691104)
   0.472015398   0.472015398   0.472015398
  -0.472015398   0.472015398   0.472015398
  -0.472015398  -0.472015398   0.472015398

ATOMIC_POSITIONS (alat)
Fe       0.000000000   0.000000000   0.000000000



     Writing output data file fe.save/
     NEW-OLD atomic charge density approx. for the potential

     Check: negative core charge=   -0.000141
     extrapolated charge   18.79806, renormalised to   16.00000

     total cpu time spent up to now is       23.3 secs

     Self-consistent Calculation

     iteration #  1     ecut=    40.00 Ry     beta= 0.70
     Davidson diagonalization with overlap
     ethr =  1.00E-06,  avg # of iterations =  4.6

     negative rho (up, down):  1.831E-04 0.000E+00

     total cpu time spent up to now is       24.3 secs

     total energy              =    -320.09036267 Ry
     Harris-Foulkes estimate   =    -316.34674003 Ry
     estimated scf accuracy    <       7.05701045 Ry

     total magnetization       =     0.47 Bohr mag/cell
     absolute magnetization    =     0.48 Bohr mag/cell

     iteration #  2     ecut=    40.00 Ry     beta= 0.70
     Davidson diagonalization with overlap
     ethr =  1.00E-02,  avg # of iterations =  3.9

     total cpu time spent up to now is       25.0 secs

     total energy              =    -329.94378571 Ry
     Harris-Foulkes estimate   =    -339.32919034 Ry
     estimated scf accuracy    <      24.27342399 Ry

     total magnetization       =     2.00 Bohr mag/cell
     absolute magnetization    =     2.00 Bohr mag/cell

     iteration #  3     ecut=    40.00 Ry     beta= 0.70
     Davidson diagonalization with overlap
     ethr =  1.00E-02,  avg # of iterations =  2.8

     total cpu time spent up to now is       25.7 secs

     total energy              =    -329.42610409 Ry
     Harris-Foulkes estimate   =    -331.00489542 Ry
     estimated scf accuracy    <       6.75826189 Ry

     total magnetization       =     2.00 Bohr mag/cell
     absolute magnetization    =     2.00 Bohr mag/cell

     iteration #  4     ecut=    40.00 Ry     beta= 0.70
     Davidson diagonalization with overlap
     ethr =  1.00E-02,  avg # of iterations =  1.5

     total cpu time spent up to now is       26.1 secs

     total energy              =    -329.53461674 Ry
     Harris-Foulkes estimate   =    -329.66740467 Ry
     estimated scf accuracy    <       2.02470426 Ry

     total magnetization       =     2.08 Bohr mag/cell
     absolute magnetization    =     2.10 Bohr mag/cell

     iteration #  5     ecut=    40.00 Ry     beta= 0.70
     Davidson diagonalization with overlap
     ethr =  1.00E-02,  avg # of iterations =  1.0

     total cpu time spent up to now is       26.6 secs

     total energy              =    -329.49988382 Ry
     Harris-Foulkes estimate   =    -329.54895219 Ry
     estimated scf accuracy    <       1.48844930 Ry

     total magnetization       =     2.08 Bohr mag/cell
     absolute magnetization    =     2.11 Bohr mag/cell

     iteration #  6     ecut=    40.00 Ry     beta= 0.70
     Davidson diagonalization with overlap
     ethr =  9.30E-03,  avg # of iterations =  1.0

     total cpu time spent up to now is       27.2 secs

     total energy              =    -329.42857458 Ry
     Harris-Foulkes estimate   =    -329.50393831 Ry
     estimated scf accuracy    <       1.25611346 Ry

     total magnetization       =     2.15 Bohr mag/cell
     absolute magnetization    =     2.18 Bohr mag/cell

     iteration #  7     ecut=    40.00 Ry     beta= 0.70
     Davidson diagonalization with overlap
     ethr =  7.85E-03,  avg # of iterations =  1.0

     total cpu time spent up to now is       27.7 secs

     total energy              =    -328.97070243 Ry
     Harris-Foulkes estimate   =    -329.43472463 Ry
     estimated scf accuracy    <       0.92576470 Ry

     total magnetization       =     2.22 Bohr mag/cell
     absolute magnetization    =     2.26 Bohr mag/cell

     iteration #  8     ecut=    40.00 Ry     beta= 0.70
     Davidson diagonalization with overlap
     ethr =  5.79E-03,  avg # of iterations =  2.0

     total cpu time spent up to now is       28.3 secs

     total energy              =    -329.19259797 Ry
     Harris-Foulkes estimate   =    -329.23377150 Ry
     estimated scf accuracy    <       0.09926099 Ry

     total magnetization       =     1.97 Bohr mag/cell
     absolute magnetization    =     2.08 Bohr mag/cell

     iteration #  9     ecut=    40.00 Ry     beta= 0.70
     Davidson diagonalization with overlap
     ethr =  6.20E-04,  avg # of iterations =  2.2

     total cpu time spent up to now is       29.2 secs

     total energy              =    -329.21953574 Ry
     Harris-Foulkes estimate   =    -329.22729225 Ry
     estimated scf accuracy    <       0.01620667 Ry

     total magnetization       =     2.00 Bohr mag/cell
     absolute magnetization    =     2.09 Bohr mag/cell

     iteration # 10     ecut=    40.00 Ry     beta= 0.70
     Davidson diagonalization with overlap
     ethr =  1.01E-04,  avg # of iterations =  2.1

     total cpu time spent up to now is       29.9 secs

     total energy              =    -329.22406535 Ry
     Harris-Foulkes estimate   =    -329.22320444 Ry
     estimated scf accuracy    <       0.00346766 Ry

     total magnetization       =     1.99 Bohr mag/cell
     absolute magnetization    =     2.09 Bohr mag/cell

     iteration # 11     ecut=    40.00 Ry     beta= 0.70
     Davidson diagonalization with overlap
     ethr =  2.17E-05,  avg # of iterations =  2.3

     total cpu time spent up to now is       30.7 secs

     total energy              =    -329.22303525 Ry
     Harris-Foulkes estimate   =    -329.22463698 Ry
     estimated scf accuracy    <       0.00438844 Ry

     total magnetization       =     2.00 Bohr mag/cell
     absolute magnetization    =     2.10 Bohr mag/cell

     iteration # 12     ecut=    40.00 Ry     beta= 0.70
     Davidson diagonalization with overlap
     ethr =  2.17E-05,  avg # of iterations =  2.0

     total cpu time spent up to now is       31.2 secs

     total energy              =    -329.22409051 Ry
     Harris-Foulkes estimate   =    -329.22419846 Ry
     estimated scf accuracy    <       0.00054976 Ry

     total magnetization       =     1.99 Bohr mag/cell
     absolute magnetization    =     2.08 Bohr mag/cell

     iteration # 13     ecut=    40.00 Ry     beta= 0.70
     Davidson diagonalization with overlap
     ethr =  3.44E-06,  avg # of iterations =  1.2

     total cpu time spent up to now is       31.9 secs

     total energy              =    -329.22408330 Ry
     Harris-Foulkes estimate   =    -329.22413758 Ry
     estimated scf accuracy    <       0.00011588 Ry

     total magnetization       =     1.99 Bohr mag/cell
     absolute magnetization    =     2.08 Bohr mag/cell

     iteration # 14     ecut=    40.00 Ry     beta= 0.70
     Davidson diagonalization with overlap
     ethr =  7.24E-07,  avg # of iterations =  2.1

     total cpu time spent up to now is       32.4 secs

     total energy              =    -329.22410519 Ry
     Harris-Foulkes estimate   =    -329.22411033 Ry
     estimated scf accuracy    <       0.00003949 Ry

     total magnetization       =     1.97 Bohr mag/cell
     absolute magnetization    =     2.06 Bohr mag/cell

     iteration # 15     ecut=    40.00 Ry     beta= 0.70
     Davidson diagonalization with overlap
     ethr =  2.47E-07,  avg # of iterations =  1.1

     total cpu time spent up to now is       33.0 secs

     total energy              =    -329.22410806 Ry
     Harris-Foulkes estimate   =    -329.22410741 Ry
     estimated scf accuracy    <       0.00001489 Ry

     total magnetization       =     1.97 Bohr mag/cell
     absolute magnetization    =     2.06 Bohr mag/cell

     iteration # 16     ecut=    40.00 Ry     beta= 0.70
     Davidson diagonalization with overlap
     ethr =  9.30E-08,  avg # of iterations =  1.0

     total cpu time spent up to now is       33.8 secs

     total energy              =    -329.22411065 Ry
     Harris-Foulkes estimate   =    -329.22410855 Ry
     estimated scf accuracy    <       0.00000833 Ry

     total magnetization       =     1.97 Bohr mag/cell
     absolute magnetization    =     2.06 Bohr mag/cell

     iteration # 17     ecut=    40.00 Ry     beta= 0.70
     Davidson diagonalization with overlap
     ethr =  5.21E-08,  avg # of iterations =  1.2

     total cpu time spent up to now is       34.3 secs

     total energy              =    -329.22411252 Ry
     Harris-Foulkes estimate   =    -329.22411162 Ry
     estimated scf accuracy    <       0.00000249 Ry

     total magnetization       =     1.97 Bohr mag/cell
     absolute magnetization    =     2.06 Bohr mag/cell

     iteration # 18     ecut=    40.00 Ry     beta= 0.70
     Davidson diagonalization with overlap
     ethr =  1.55E-08,  avg # of iterations =  1.4

     total cpu time spent up to now is       34.8 secs

     total energy              =    -329.22411331 Ry
     Harris-Foulkes estimate   =    -329.22411333 Ry
     estimated scf accuracy    <       0.00000035 Ry

     total magnetization       =     1.98 Bohr mag/cell
     absolute magnetization    =     2.07 Bohr mag/cell

     iteration # 19     ecut=    40.00 Ry     beta= 0.70
     Davidson diagonalization with overlap
     ethr =  2.16E-09,  avg # of iterations =  2.2
 
     Magnetic moment per site:
     atom:    1    charge:   14.2916    magn:    2.0096    constr:    0.0000

     total cpu time spent up to now is       35.5 secs

     End of self-consistent calculation

 ------ SPIN UP ------------


          k = 0.0000 0.0000 0.0000 (   321 PWs)   bands (ev):

   -66.5823 -32.2016 -32.2016 -32.2016  12.2819  19.0729  19.0729  19.0729
    20.5714  20.5714  53.8422  53.8422

          k = 0.0000-0.1324 0.1324 (   341 PWs)   bands (ev):

   -66.5622 -32.3193 -32.2440 -32.2197  12.9911  18.8580  19.0304  19.4950
    20.3939  20.5908  44.6952  47.6643

          k = 0.0000-0.2648 0.2648 (   346 PWs)   bands (ev):

   -66.5128 -32.5547 -32.3264 -32.2236  14.7564  18.3623  18.8938  20.3777
    20.5946  20.6631  39.1070  47.3776

          k = 0.0000-0.3972 0.3972 (   342 PWs)   bands (ev):

   -66.4629 -32.7801 -32.4032 -32.2216  15.8633  17.8958  20.2097  20.7716
    20.7905  21.8434  33.4799  42.0594

          k = 0.0000 0.5296-0.5296 (   340 PWs)   bands (ev):

   -66.4421 -32.8743 -32.4344 -32.2226  15.8696  17.7101  20.6745  20.8280
    22.4206  22.4804  30.3187  41.2153

          k =-0.1324-0.1324 0.2648 (   343 PWs)   bands (ev):

   -66.5273 -32.4819 -32.2843 -32.2428  14.2753  18.6232  18.6620  20.2170
    20.3776  20.7232  41.7060  43.1529

          k =-0.1324-0.2648 0.3972 (   345 PWs)   bands (ev):

   -66.4776 -32.6862 -32.3800 -32.2552  15.9851  18.1091  18.7008  20.3672
    20.8895  21.9567  36.4565  40.3786

          k =-0.1324 0.6621-0.5296 (   338 PWs)   bands (ev):

   -66.4421 -32.8218 -32.4525 -32.2538  16.2668  17.8182  19.7562  20.6246
    21.3236  24.0780  31.4290  39.0207

          k =-0.2648 0.7945-0.5296 (   336 PWs)   bands (ev):

   -66.4421 -32.7545 -32.4887 -32.2837  17.0035  17.7823  18.6401  20.5343
    21.0942  24.6498  34.1314  35.2653

          k =-0.2648 0.6621-0.3972 (   336 PWs)   bands (ev):

   -66.4275 -32.7529 -32.5732 -32.2893  17.0847  17.8564  18.6546  20.7487
    21.1760  27.5016  30.5358  34.1451

          k = 0.0000 0.0000 0.2648 (   345 PWs)   bands (ev):

   -66.5427 -32.3465 -32.2834 -32.2834  13.6618  19.1003  19.1003  19.4913
    19.8506  20.8551  43.6902  46.3841

          k = 0.0000-0.1324 0.3972 (   340 PWs)   bands (ev):

   -66.4952 -32.5431 -32.3596 -32.2921  15.3372  18.7363  18.7791  19.8149
    20.4948  21.1907  39.5584  44.1846

          k = 0.0000-0.2648 0.5296 (   337 PWs)   bands (ev):

   -66.4473 -32.7585 -32.4346 -32.2864  16.3137  18.3691  18.7346  20.3249
    21.7723  22.5465  33.8784  42.1887

          k = 0.0000 0.6621-0.3972 (   336 PWs)   bands (ev):

   -66.4274 -32.8445 -32.4669 -32.2881  16.2632  18.2033  19.1067  20.3331
    22.3700  24.6918  30.3971  41.3025

          k =-0.1324-0.1324 0.5296 (   336 PWs)   bands (ev):

   -66.4495 -32.6769 -32.4526 -32.3313  16.6378  17.9397  18.9753  19.9840
    21.1999  22.6584  37.0458  38.0319

          k =-0.1324 0.7945-0.3972 (   342 PWs)   bands (ev):

   -66.4172 -32.7786 -32.5467 -32.3369  16.8792  17.9333  18.5986  20.4263
    21.7815  25.8166  31.9854  36.1570

          k =-0.2648 0.2648 0.2648 (   345 PWs)   bands (ev):

   -66.4900 -32.6477 -32.3018 -32.3018  15.9269  18.1018  18.1018  20.6039
    20.6039  22.0123  39.2578  39.2578

          k =-0.2648 0.7945-0.2648 (   345 PWs)   bands (ev):

   -66.4048 -32.6969 -32.6969 -32.3447  17.5094  17.5094  18.1424  21.2428
    21.2428  29.8910  29.8910  32.6014

          k = 0.6621-0.6621 0.2648 (   338 PWs)   bands (ev):

   -66.4524 -32.7498 -32.4181 -32.3112  16.9692  17.7456  18.5979  20.7051
    20.7977  24.3301  34.1425  37.5974

          k = 0.5296-0.5296 0.2648 (   336 PWs)   bands (ev):

   -66.4369 -32.7777 -32.4841 -32.3133  16.8330  17.6305  19.4885  20.7883
    20.8514  26.5385  30.5539  37.0149

          k = 0.5296-0.6621 0.3972 (   337 PWs)   bands (ev):

   -66.4348 -32.6977 -32.5304 -32.3725  17.4059  17.8582  18.4725  20.8236
    20.8850  27.6880  32.1515  33.6015

          k = 0.0000 0.0000 0.5296 (   341 PWs)   bands (ev):

   -66.4526 -32.5582 -32.4442 -32.4442  16.4425  18.1370  19.6163  19.6163
    20.5323  22.2034  40.4133  40.8783

          k = 0.0000-0.1324 0.6621 (   337 PWs)   bands (ev):

   -66.4098 -32.7034 -32.5226 -32.4576  16.8673  17.3729  19.6312  20.1627
    21.6116  24.6538  35.0714  38.4327

          k = 0.0000 0.7945-0.2648 (   342 PWs)   bands (ev):

   -66.3922 -32.7829 -32.5569 -32.4490  16.6565  17.3291  19.5400  20.3010
    22.2487  27.7283  30.8318  37.4087

          k =-0.1324 0.9269-0.2648 (   337 PWs)   bands (ev):

   -66.3816 -32.7257 -32.6318 -32.4767  16.7587  16.8184  19.7021  21.0965
    21.8676  28.2730  33.0983  33.9391

          k = 0.5296-0.5296 0.5296 (   336 PWs)   bands (ev):

   -66.4317 -32.5436 -32.5436 -32.5436  17.9565  17.9565  17.9565  20.8748
    20.8748  31.4943  31.4943  31.4943

          k = 0.0000 0.0000 0.7945 (   338 PWs)   bands (ev):

   -66.3721 -32.6656 -32.6088 -32.6088  16.4854  16.5017  21.0098  21.0098
    21.6174  27.4377  35.5492  35.5492

          k = 0.0000 0.9269-0.1324 (   350 PWs)   bands (ev):

   -66.3569 -32.7170 -32.6518 -32.6118  16.1712  16.2247  21.2064  21.4334
    22.1287  30.8910  31.9748  34.2048

          k = 0.0000 0.0000-1.0593 (   370 PWs)   bands (ev):

   -66.3427 -32.6946 -32.6946 -32.6946  15.8529  15.8529  22.0794  22.0794
    22.0794  32.7513  32.7513  32.7513

 ------ SPIN DOWN ----------


          k = 0.0000 0.0000 0.0000 (   321 PWs)   bands (ev):

   -64.1859 -29.8378 -29.8378 -29.8378  12.4591  20.7440  20.7440  20.7440
    23.2063  23.2063  54.1263  54.1263

          k = 0.0000-0.1324 0.1324 (   341 PWs)   bands (ev):

   -64.1642 -29.9634 -29.8815 -29.8548  13.1755  20.4951  20.6812  21.1957
    22.9628  23.2273  44.8957  47.6316

          k = 0.0000-0.2648 0.2648 (   346 PWs)   bands (ev):

   -64.1110 -30.2209 -29.9697 -29.8584  15.0414  19.9265  20.4202  22.3813
    22.7872  23.3151  39.7235  47.6281

          k = 0.0000-0.3972 0.3972 (   342 PWs)   bands (ev):

   -64.0570 -30.4684 -30.0527 -29.8566  16.7387  19.3973  21.1095  22.9665
    23.4580  23.7478  34.4306  42.1084

          k = 0.0000 0.5296-0.5296 (   340 PWs)   bands (ev):

   -64.0345 -30.5713 -30.0863 -29.8577  17.0194  19.1882  22.5845  23.0523
    23.5352  24.3893  31.6030  41.2324

          k =-0.1324-0.1324 0.2648 (   343 PWs)   bands (ev):

   -64.1265 -30.1408 -29.9252 -29.8797  14.4949  20.2041  20.2897  22.1166
    22.6743  23.3637  42.1387  43.5018

          k =-0.1324-0.2648 0.3972 (   345 PWs)   bands (ev):

   -64.0729 -30.3648 -30.0282 -29.8930  16.5187  19.6392  20.0688  22.7012
    23.4156  23.7911  37.2030  40.8009

          k =-0.1324 0.6621-0.5296 (   338 PWs)   bands (ev):

   -64.0346 -30.5137 -30.1070 -29.8922  17.3922  19.2858  20.9967  22.9602
    23.6569  25.4663  32.5247  39.4233

          k =-0.2648 0.7945-0.5296 (   336 PWs)   bands (ev):

   -64.0346 -30.4394 -30.1484 -29.9246  18.0208  19.2750  19.8891  22.8397
    23.5483  26.1226  34.9761  35.9290

          k =-0.2648 0.6621-0.3972 (   336 PWs)   bands (ev):

   -64.0188 -30.4375 -30.2405 -29.9310  18.3531  19.2797  19.9870  23.0759
    23.5026  28.5785  31.6178  34.8554

          k = 0.0000 0.0000 0.2648 (   345 PWs)   bands (ev):

   -64.1433 -29.9941 -29.9232 -29.9232  13.8597  20.7340  20.7340  21.1955
    22.3017  23.5283  43.9431  46.6360

          k = 0.0000-0.1324 0.3972 (   340 PWs)   bands (ev):

   -64.0919 -30.2094 -30.0060 -29.9343  15.6651  20.3636  20.4745  21.9158
    22.2709  23.7902  40.1857  43.6789

          k = 0.0000-0.2648 0.5296 (   337 PWs)   bands (ev):

   -64.0403 -30.4442 -30.0875 -29.9286  17.2658  19.8991  20.2752  22.4158
    23.6683  24.4782  34.7962  42.7370

          k = 0.0000 0.6621-0.3972 (   336 PWs)   bands (ev):

   -64.0189 -30.5384 -30.1226 -29.9294  17.5160  19.7122  20.7014  22.5204
    24.3340  25.8644  31.6280  41.8266

          k =-0.1324-0.1324 0.5296 (   336 PWs)   bands (ev):

   -64.0427 -30.3551 -30.1083 -29.9767  17.3587  19.7122  20.5010  21.9268
    23.2222  24.6280  37.8447  38.6123

          k =-0.1324 0.7945-0.3972 (   342 PWs)   bands (ev):

   -64.0080 -30.4650 -30.2098 -29.9821  18.2084  19.4895  20.1450  22.4326
    23.7812  27.1198  32.9817  36.8190

          k =-0.2648 0.2648 0.2648 (   345 PWs)   bands (ev):

   -64.0863 -30.3229 -29.9434 -29.9434  16.2386  19.6204  19.6204  23.1713
    23.1713  23.7325  39.7743  39.7743

          k =-0.2648 0.7945-0.2648 (   345 PWs)   bands (ev):

   -63.9945 -30.3743 -30.3743 -29.9902  19.0936  19.0936  19.5388  23.2298
    23.2298  30.9304  30.9304  33.4018

          k = 0.6621-0.6621 0.2648 (   338 PWs)   bands (ev):

   -64.0457 -30.4349 -30.0708 -29.9541  17.8960  19.1671  19.6894  23.2204
    23.4690  25.8059  34.9414  38.1058

          k = 0.5296-0.5296 0.2648 (   336 PWs)   bands (ev):

   -64.0288 -30.4651 -30.1430 -29.9572  18.0210  19.0154  20.5088  23.2933
    23.5652  27.5802  31.6747  37.5053

          k = 0.5296-0.6621 0.3972 (   337 PWs)   bands (ev):

   -64.0265 -30.3778 -30.1934 -30.0212  18.6538  19.1502  19.5710  23.4182
    23.5487  28.7797  32.9843  34.3354

          k = 0.0000 0.0000 0.5296 (   341 PWs)   bands (ev):

   -64.0462 -30.2271 -30.0977 -30.0977  17.0621  20.2069  21.2279  21.2279
    22.3245  24.4317  41.1436  41.4521

          k = 0.0000-0.1324 0.6621 (   337 PWs)   bands (ev):

   -64.0002 -30.3832 -30.1833 -30.1140  18.1174  19.1661  21.2475  21.9171
    23.4909  26.1146  35.8657  38.9728

          k = 0.0000 0.7945-0.2648 (   342 PWs)   bands (ev):

   -63.9812 -30.4679 -30.2204 -30.1052  18.2393  18.9524  21.1480  22.0868
    24.2014  28.7336  31.8532  37.9051

          k =-0.1324 0.9269-0.2648 (   337 PWs)   bands (ev):

   -63.9700 -30.4056 -30.3031 -30.1348  18.3930  18.4871  21.2891  22.8983
    23.7785  29.2826  33.9254  34.5692

          k = 0.5296-0.5296 0.5296 (   336 PWs)   bands (ev):

   -64.0231 -30.2085 -30.2085 -30.2085  19.1638  19.1638  19.1638  23.5953
    23.5953  32.3061  32.3061  32.3061

          k = 0.0000 0.0000 0.7945 (   338 PWs)   bands (ev):

   -63.9599 -30.3414 -30.2770 -30.2770  18.0302  18.2799  22.7470  22.7470
    23.5095  28.3853  36.0063  36.0063

          k = 0.0000 0.9269-0.1324 (   350 PWs)   bands (ev):

   -63.9433 -30.3938 -30.3225 -30.2811  17.8689  17.8883  22.9948  23.2318
    24.0704  31.5482  32.5760  34.5899

          k = 0.0000 0.0000-1.0593 (   370 PWs)   bands (ev):

   -63.9279 -30.3676 -30.3676 -30.3676  17.5324  17.5324  24.0166  24.0166
    24.0166  33.0230  33.0230  33.0230

     the Fermi energy is    21.8197 ev

!    total energy              =    -329.22411362 Ry
     Harris-Foulkes estimate   =    -329.22411359 Ry
     estimated scf accuracy    <          5.2E-09 Ry

     total all-electron energy =     -2545.520649 Ry

     The total energy is the sum of the following terms:

     one-electron contribution =     -96.83437957 Ry
     hartree contribution      =      60.87725389 Ry
     xc contribution           =     -34.93160314 Ry
     ewald contribution        =    -182.18474749 Ry
     one-center paw contrib.   =     -76.15030661 Ry
     smearing contrib. (-TS)   =      -0.00033070 Ry

     total magnetization       =     1.98 Bohr mag/cell
     absolute magnetization    =     2.07 Bohr mag/cell

     convergence has been achieved in  19 iterations

     Forces acting on atoms (cartesian axes, Ry/au):

     atom    1 type  1   force =     0.00000000    0.00000000    0.00000000

     Total force =     0.000000     Total SCF correction =     0.000000


     Computing stress (Cartesian axis) and pressure

          total   stress  (Ry/bohr**3)                   (kbar)     P=  -52.18
  -0.00035470   0.00000000  -0.00000000        -52.18      0.00     -0.00
   0.00000000  -0.00035470   0.00000000          0.00    -52.18      0.00
  -0.00000000   0.00000000  -0.00035470         -0.00      0.00    -52.18


     number of scf cycles    =   3
     number of bfgs steps    =   1

     enthalpy old            =    -329.1864077259 Ry
     enthalpy new            =    -329.2241136199 Ry

     CASE: enthalpy_new < enthalpy_old

     new trust radius        =       0.0071837979 bohr
ibrav =      3
 celldm(1) =      5.09126772
Input lattice vectors:
     0.46994197     0.46994197     0.46994197
    -0.46994197     0.46994197     0.46994197
    -0.46994197    -0.46994197     0.46994197
New lattice vectors in INITIAL alat:
     0.46994197     0.46994197     0.46994197
    -0.46994197     0.46994197     0.46994197
    -0.46994197    -0.46994197     0.46994197
New lattice vectors in NEW alat (for information only):
     0.50000000     0.50000000     0.50000000
    -0.50000000     0.50000000     0.50000000
    -0.50000000    -0.50000000     0.50000000
Discrepancy in bohr =     0.000000    0.000000    0.000000
     new conv_thr            =            1.0E-10 Ry

     new unit-cell volume =     65.98539 a.u.^3 (     9.77803 Ang^3 )
     density =      9.48379 g/cm^3

CELL_PARAMETERS (alat=  5.41691104)
   0.469941972   0.469941972   0.469941972
  -0.469941972   0.469941972   0.469941972
  -0.469941972  -0.469941972   0.469941972

ATOMIC_POSITIONS (alat)
Fe       0.000000000   0.000000000   0.000000000



     Writing output data file fe.save/
     NEW-OLD atomic charge density approx. for the potential

     Check: negative core charge=   -0.000131
     extrapolated charge   15.78729, renormalised to   16.00000

     total cpu time spent up to now is       36.3 secs

     Self-consistent Calculation

     iteration #  1     ecut=    40.00 Ry     beta= 0.70
     Davidson diagonalization with overlap
     ethr =  1.00E-06,  avg # of iterations =  3.9

     total cpu time spent up to now is       37.2 secs

     total energy              =    -329.11620710 Ry
     Harris-Foulkes estimate   =    -330.37741670 Ry
     estimated scf accuracy    <       0.09596412 Ry

     total magnetization       =     2.12 Bohr mag/cell
     absolute magnetization    =     2.18 Bohr mag/cell

     iteration #  2     ecut=    40.00 Ry     beta= 0.70
     Davidson diagonalization with overlap
     ethr =  6.00E-04,  avg # of iterations =  3.1

     total cpu time spent up to now is       37.8 secs

     total energy              =    -329.18771835 Ry
     Harris-Foulkes estimate   =    -329.37004622 Ry
     estimated scf accuracy    <       0.58108721 Ry

     total magnetization       =     1.68 Bohr mag/cell
     absolute magnetization    =     1.75 Bohr mag/cell

     iteration #  3     ecut=    40.00 Ry     beta= 0.70
     Davidson diagonalization with overlap
     ethr =  6.00E-04,  avg # of iterations =  2.0

     total cpu time spent up to now is       38.4 secs

     total energy              =    -329.22439303 Ry
     Harris-Foulkes estimate   =    -329.23510585 Ry
     estimated scf accuracy    <       0.05930716 Ry

     total magnetization       =     1.87 Bohr mag/cell
     absolute magnetization    =     1.94 Bohr mag/cell

     iteration #  4     ecut=    40.00 Ry     beta= 0.70
     Davidson diagonalization with overlap
     ethr =  3.71E-04,  avg # of iterations =  1.4

     total cpu time spent up to now is       38.9 secs

     total energy              =    -329.21901421 Ry
     Harris-Foulkes estimate   =    -329.22767525 Ry
     estimated scf accuracy    <       0.01905963 Ry

     total magnetization       =     1.90 Bohr mag/cell
     absolute magnetization    =     1.98 Bohr mag/cell

     iteration #  5     ecut=    40.00 Ry     beta= 0.70
     Davidson diagonalization with overlap
     ethr =  1.19E-04,  avg # of iterations =  2.4

     total cpu time spent up to now is       39.5 secs

     total energy              =    -329.22437249 Ry
     Harris-Foulkes estimate   =    -329.22428745 Ry
     estimated scf accuracy    <       0.00053068 Ry

     total magnetization       =     1.95 Bohr mag/cell
     absolute magnetization    =     2.04 Bohr mag/cell

     iteration #  6     ecut=    40.00 Ry     beta= 0.70
     Davidson diagonalization with overlap
     ethr =  3.32E-06,  avg # of iterations =  2.8

     total cpu time spent up to now is       40.2 secs

     total energy              =    -329.22454972 Ry
     Harris-Foulkes estimate   =    -329.22448087 Ry
     estimated scf accuracy    <       0.00095275 Ry

     total magnetization       =     1.95 Bohr mag/cell
     absolute magnetization    =     2.04 Bohr mag/cell

     iteration #  7     ecut=    40.00 Ry     beta= 0.70
     Davidson diagonalization with overlap
     ethr =  3.32E-06,  avg # of iterations =  1.0

     total cpu time spent up to now is       40.7 secs

     total energy              =    -329.22465277 Ry
     Harris-Foulkes estimate   =    -329.22455421 Ry
     estimated scf accuracy    <       0.00125459 Ry

     total magnetization       =     1.95 Bohr mag/cell
     absolute magnetization    =     2.04 Bohr mag/cell

     iteration #  8     ecut=    40.00 Ry     beta= 0.70
     Davidson diagonalization with overlap
     ethr =  3.32E-06,  avg # of iterations =  1.0

     total cpu time spent up to now is       41.5 secs

     total energy              =    -329.22406118 Ry
     Harris-Foulkes estimate   =    -329.22466439 Ry
     estimated scf accuracy    <       0.00178719 Ry

     total magnetization       =     1.95 Bohr mag/cell
     absolute magnetization    =     2.03 Bohr mag/cell

     iteration #  9     ecut=    40.00 Ry     beta= 0.70
     Davidson diagonalization with overlap
     ethr =  3.32E-06,  avg # of iterations =  2.0

     total cpu time spent up to now is       42.1 secs

     total energy              =    -329.22421757 Ry
     Harris-Foulkes estimate   =    -329.22424645 Ry
     estimated scf accuracy    <       0.00009788 Ry

     total magnetization       =     1.94 Bohr mag/cell
     absolute magnetization    =     2.02 Bohr mag/cell

     iteration # 10     ecut=    40.00 Ry     beta= 0.70
     Davidson diagonalization with overlap
     ethr =  6.12E-07,  avg # of iterations =  2.1

     total cpu time spent up to now is       42.6 secs

     total energy              =    -329.22422852 Ry
     Harris-Foulkes estimate   =    -329.22423146 Ry
     estimated scf accuracy    <       0.00000783 Ry

     total magnetization       =     1.93 Bohr mag/cell
     absolute magnetization    =     2.02 Bohr mag/cell

     iteration # 11     ecut=    40.00 Ry     beta= 0.70
     Davidson diagonalization with overlap
     ethr =  4.90E-08,  avg # of iterations =  2.4

     total cpu time spent up to now is       43.3 secs

     total energy              =    -329.22423066 Ry
     Harris-Foulkes estimate   =    -329.22423064 Ry
     estimated scf accuracy    <       0.00000002 Ry

     total magnetization       =     1.93 Bohr mag/cell
     absolute magnetization    =     2.02 Bohr mag/cell

     iteration # 12     ecut=    40.00 Ry     beta= 0.70
     Davidson diagonalization with overlap
     ethr =  9.46E-11,  avg # of iterations =  3.3

     total cpu time spent up to now is       44.1 secs

     total energy              =    -329.22423069 Ry
     Harris-Foulkes estimate   =    -329.22423068 Ry
     estimated scf accuracy    <          5.4E-09 Ry

     total magnetization       =     1.93 Bohr mag/cell
     absolute magnetization    =     2.02 Bohr mag/cell

     iteration # 13     ecut=    40.00 Ry     beta= 0.70
     Davidson diagonalization with overlap
     ethr =  3.37E-11,  avg # of iterations =  2.0

     total cpu time spent up to now is       44.7 secs

     total energy              =    -329.22423068 Ry
     Harris-Foulkes estimate   =    -329.22423069 Ry
     estimated scf accuracy    <       0.00000002 Ry

     total magnetization       =     1.93 Bohr mag/cell
     absolute magnetization    =     2.02 Bohr mag/cell

     iteration # 14     ecut=    40.00 Ry     beta= 0.70
     Davidson diagonalization with overlap
     ethr =  3.37E-11,  avg # of iterations =  2.1
 
     Magnetic moment per site:
     atom:    1    charge:   14.2795    magn:    1.9587    constr:    0.0000

     total cpu time spent up to now is       45.3 secs

     End of self-consistent calculation

 ------ SPIN UP ------------


          k = 0.0000 0.0000 0.0000 (   321 PWs)   bands (ev):

   -66.2476 -31.8536 -31.8536 -31.8536  12.5429  19.3935  19.3935  19.3935
    20.9236  20.9236  54.4179  54.4179

          k = 0.0000-0.1330 0.1330 (   341 PWs)   bands (ev):

   -66.2264 -31.9741 -31.8963 -31.8700  13.2593  19.1737  19.3492  19.8238
    20.7418  20.9436  45.1874  48.1618

          k = 0.0000-0.2660 0.2660 (   346 PWs)   bands (ev):

   -66.1743 -32.2202 -31.9814 -31.8737  15.0361  18.6673  19.2073  20.7256
    20.9452  21.0178  39.5991  44.7654

          k = 0.0000-0.3990 0.3990 (   342 PWs)   bands (ev):

[...]

     Dense  grid:     6459 G-vectors     FFT dimensions: (  25,  25,  25)

     Smooth grid:     2243 G-vectors     FFT dimensions: (  18,  18,  18)

     Estimated max dynamical RAM per process >       9.88 MB

     Estimated total dynamical RAM >      39.51 MB
     Generating pointlists ...
     new r_m :   0.3361 (alat units)  1.8204 (a.u.) for type    1

     Check: negative core charge=   -0.000327

     Initial potential from superposition of free atoms

     starting charge   15.99956, renormalised to   16.00000
     Starting wfcs are   13 randomized atomic wfcs
     Checking if some PAW data can be deallocated... 

     total cpu time spent up to now is       71.7 secs

     Self-consistent Calculation

     iteration #  1     ecut=    40.00 Ry     beta= 0.70
     Davidson diagonalization with overlap
     ethr =  1.00E-06,  avg # of iterations =  8.7

     total cpu time spent up to now is       72.8 secs

     total energy              =    -329.14258087 Ry
     Harris-Foulkes estimate   =    -329.15477236 Ry
     estimated scf accuracy    <       0.03594421 Ry

     total magnetization       =     1.92 Bohr mag/cell
     absolute magnetization    =     1.93 Bohr mag/cell

     iteration #  2     ecut=    40.00 Ry     beta= 0.70
     Davidson diagonalization with overlap
     ethr =  2.25E-04,  avg # of iterations =  2.4

     total cpu time spent up to now is       73.3 secs

     total energy              =    -329.14614105 Ry
     Harris-Foulkes estimate   =    -329.17457609 Ry
     estimated scf accuracy    <       0.07008037 Ry

     total magnetization       =     2.05 Bohr mag/cell
     absolute magnetization    =     2.08 Bohr mag/cell

     iteration #  3     ecut=    40.00 Ry     beta= 0.70
     Davidson diagonalization with overlap
     ethr =  2.25E-04,  avg # of iterations =  2.0

     total cpu time spent up to now is       73.9 secs

     total energy              =    -329.16095040 Ry
     Harris-Foulkes estimate   =    -329.15967121 Ry
     estimated scf accuracy    <       0.00087307 Ry

     total magnetization       =     1.94 Bohr mag/cell
     absolute magnetization    =     1.99 Bohr mag/cell

     iteration #  4     ecut=    40.00 Ry     beta= 0.70
     Davidson diagonalization with overlap
     ethr =  5.46E-06,  avg # of iterations =  2.9

     total cpu time spent up to now is       74.5 secs

     total energy              =    -329.16151252 Ry
     Harris-Foulkes estimate   =    -329.16146462 Ry
     estimated scf accuracy    <       0.00005799 Ry

     total magnetization       =     1.93 Bohr mag/cell
     absolute magnetization    =     2.01 Bohr mag/cell

     iteration #  5     ecut=    40.00 Ry     beta= 0.70
     Davidson diagonalization with overlap
     ethr =  3.62E-07,  avg # of iterations =  2.2

     total cpu time spent up to now is       75.0 secs

     total energy              =    -329.16154496 Ry
     Harris-Foulkes estimate   =    -329.16153483 Ry
     estimated scf accuracy    <       0.00001041 Ry

     total magnetization       =     1.94 Bohr mag/cell
     absolute magnetization    =     2.02 Bohr mag/cell

     iteration #  6     ecut=    40.00 Ry     beta= 0.70
     Davidson diagonalization with overlap
     ethr =  6.51E-08,  avg # of iterations =  2.0

     total cpu time spent up to now is       75.5 secs

     total energy              =    -329.16155030 Ry
     Harris-Foulkes estimate   =    -329.16155021 Ry
     estimated scf accuracy    <       0.00000265 Ry

     total magnetization       =     1.95 Bohr mag/cell
     absolute magnetization    =     2.04 Bohr mag/cell

     iteration #  7     ecut=    40.00 Ry     beta= 0.70
     Davidson diagonalization with overlap
     ethr =  1.66E-08,  avg # of iterations =  1.5

     total cpu time spent up to now is       76.0 secs

     total energy              =    -329.16155475 Ry
     Harris-Foulkes estimate   =    -329.16155467 Ry
     estimated scf accuracy    <       0.00000033 Ry

     total magnetization       =     1.96 Bohr mag/cell
     absolute magnetization    =     2.05 Bohr mag/cell

     iteration #  8     ecut=    40.00 Ry     beta= 0.70
     Davidson diagonalization with overlap
     ethr =  2.08E-09,  avg # of iterations =  1.9

     total cpu time spent up to now is       76.5 secs

     total energy              =    -329.16155493 Ry
     Harris-Foulkes estimate   =    -329.16155490 Ry
     estimated scf accuracy    <          9.3E-09 Ry

     total magnetization       =     1.96 Bohr mag/cell
     absolute magnetization    =     2.05 Bohr mag/cell

     iteration #  9     ecut=    40.00 Ry     beta= 0.70
     Davidson diagonalization with overlap
     ethr =  5.82E-11,  avg # of iterations =  2.8

     total cpu time spent up to now is       77.1 secs

     total energy              =    -329.16155495 Ry
     Harris-Foulkes estimate   =    -329.16155494 Ry
     estimated scf accuracy    <          1.7E-10 Ry

     total magnetization       =     1.96 Bohr mag/cell
     absolute magnetization    =     2.05 Bohr mag/cell

     iteration # 10     ecut=    40.00 Ry     beta= 0.70
     Davidson diagonalization with overlap
     ethr =  1.06E-12,  avg # of iterations =  2.6
 
     Magnetic moment per site:
     atom:    1    charge:   14.3022    magn:    1.9884    constr:    0.0000

     total cpu time spent up to now is       77.7 secs

     End of self-consistent calculation

 ------ SPIN UP ------------


          k = 0.0000 0.0000 0.0000 (   321 PWs)   bands (ev):

   -66.2952 -31.8997 -31.8997 -31.8997  12.5005  19.3570  19.3570  19.3570
    20.8740  20.8740  48.2258  48.2258

          k = 0.0000-0.1329 0.1329 (   293 PWs)   bands (ev):

   -66.2739 -31.9422 -31.8848 -31.8522  13.3445  19.1394  19.3198  19.7866
    20.6944  20.8954  45.1886  47.3443

          k = 0.0000-0.2658 0.2658 (   281 PWs)   bands (ev):

   -66.2222 -32.1827 -31.9493 -31.8360  15.2068  18.6356  19.2660  20.6823
    20.9078  20.9697  39.8593  44.9599

          k = 0.0000-0.3986 0.3986 (   286 PWs)   bands (ev):

   -66.1701 -32.4534 -32.0341 -31.8520  16.1523  18.1615  20.6543  21.0797
    21.2415  22.1718  34.0612  42.7444

          k = 0.0000 0.5315-0.5315 (   276 PWs)   bands (ev):

   -66.1484 -32.5317 -32.0603 -31.8327  16.1222  17.9732  20.9852  21.1376
    22.7526  23.4529  30.7944  41.9938

          k =-0.1329-0.1329 0.2658 (   282 PWs)   bands (ev):

   -66.2374 -32.1053 -31.9062 -31.8593  14.7305  18.9117  18.9472  20.5160
    20.7027  21.0334  42.3030  43.8841

          k =-0.1329-0.2658 0.3986 (   283 PWs)   bands (ev):

   -66.1854 -32.3344 -32.0063 -31.8793  16.3762  18.3894  19.0904  20.6744
    21.2053  22.3628  37.2107  41.1576

          k =-0.1329 0.6644-0.5315 (   283 PWs)   bands (ev):

   -66.1485 -32.4921 -32.0850 -31.8821  16.5403  18.0926  20.1663  20.9365
    21.6900  24.6703  31.9820  39.8164

          k =-0.2658 0.7973-0.5315 (   284 PWs)   bands (ev):

   -66.1485 -32.4126 -32.1336 -31.9217  17.3115  18.0920  19.0309  20.8428
    21.4203  25.2157  34.9037  35.9619

          k =-0.2658 0.6644-0.3986 (   282 PWs)   bands (ev):

   -66.1332 -32.4100 -32.2144 -31.9266  17.3696  18.1719  19.0565  21.0632
    21.5103  28.2982  31.1712  34.8717

          k = 0.0000 0.0000 0.2658 (   289 PWs)   bands (ev):

   -66.2534 -31.9730 -31.9102 -31.9102  14.0612  19.3906  19.3906  19.7820
    20.1416  21.1677  44.0704  47.0174

          k = 0.0000-0.1329 0.3986 (   285 PWs)   bands (ev):

   -66.2038 -32.1903 -31.9916 -31.9176  15.7801  19.0418  19.0658  20.1236
    20.8043  21.5331  40.2161  43.9556

          k = 0.0000-0.2658 0.5315 (   281 PWs)   bands (ev):

   -66.1540 -32.4128 -32.0658 -31.9248  16.6287  18.6508  19.1247  20.6439
    22.0991  23.1134  34.5716  42.1011

          k = 0.0000 0.6644-0.3986 (   284 PWs)   bands (ev):

   -66.1332 -32.5154 -32.1033 -31.9418  16.5264  18.4821  19.4816  20.6384
    22.7012  25.4498  30.8961  41.4177

          k =-0.1329-0.1329 0.5315 (   283 PWs)   bands (ev):

   -66.1563 -32.3304 -32.0904 -31.9775  17.0220  18.2197  19.3001  20.2939
    21.5197  23.1375  37.8026  38.8730

          k =-0.1329 0.7973-0.3986 (   281 PWs)   bands (ev):

   -66.1225 -32.4351 -32.1760 -31.9863  17.1738  18.2722  18.9134  20.7442
    22.1233  26.5550  32.6898  37.0926

          k =-0.2658 0.2658 0.2658 (   294 PWs)   bands (ev):

   -66.1984 -32.3119 -31.9439 -31.9439  16.3439  18.3833  18.3833  20.9094
    20.9094  22.3928  39.9267  39.9267

          k =-0.2658 0.7973-0.2658 (   285 PWs)   bands (ev):

   -66.1094 -32.3516 -32.3516 -31.9972  17.8328  17.8328  18.4211  21.5800
    21.5800  30.7728  30.7728  33.1576

          k = 0.6644-0.6644 0.2658 (   281 PWs)   bands (ev):

   -66.1593 -32.4073 -32.0523 -31.9277  17.3027  18.0365  19.0203  21.0143
    21.1068  24.8536  34.8620  38.4060

          k = 0.5315-0.5315 0.2658 (   282 PWs)   bands (ev):

   -66.1431 -32.4360 -32.1186 -31.9416  17.1306  17.9191  19.9568  21.0992
    21.1612  27.2954  31.0640  37.7745

          k = 0.5315-0.6644 0.3986 (   292 PWs)   bands (ev):

   -66.1409 -32.3730 -32.1835 -32.0161  17.6989  18.1901  18.8363  21.1339
    21.1967  28.2717  32.9072  34.1648

          k = 0.0000 0.0000 0.5315 (   293 PWs)   bands (ev):

   -66.1595 -32.2359 -32.0920 -32.0920  16.8071  18.3993  19.9291  19.9291
    20.8368  22.5961  40.7920  41.9009

          k = 0.0000-0.1329 0.6644 (   278 PWs)   bands (ev):

   -66.1150 -32.3540 -32.1517 -32.0994  17.1803  17.6659  19.9471  20.4909
    21.9368  25.2746  36.0320  39.7475

          k = 0.0000 0.7973-0.2658 (   276 PWs)   bands (ev):

   -66.0965 -32.4296 -32.1789 -32.0990  16.9214  17.6652  19.8583  20.6210
    22.5785  28.7775  31.4522  38.8760

          k =-0.1329 0.9301-0.2658 (   274 PWs)   bands (ev):

   -66.0857 -32.3681 -32.2698 -32.1147  17.0228  17.1226  20.0195  21.4367
    22.2008  29.1566  34.1472  34.8883

          k = 0.5315-0.5315 0.5315 (   276 PWs)   bands (ev):

   -66.1378 -32.1699 -32.1699 -32.1699  18.3363  18.3363  18.3363  21.1855
    21.1855  32.3974  32.3974  32.3974

          k = 0.0000 0.0000 0.7973 (   265 PWs)   bands (ev):

   -66.0758 -32.2984 -32.2306 -32.2306  16.7402  16.7931  21.3559  21.3559
    21.9375  28.3900  37.0552  37.0552

          k = 0.0000 0.9301-0.1329 (   274 PWs)   bands (ev):

   -66.0596 -32.3634 -32.2770 -32.2542  16.4122  16.4833  21.5426  21.7723
    22.4565  32.0843  33.0073  35.8041

          k = 0.0000 0.0000-1.0630 (   266 PWs)   bands (ev):

   -66.0443 -32.3141 -32.3141 -32.3141  16.0821  16.0821  22.4066  22.4066
    22.4066  34.5482  34.5482  34.5482

 ------ SPIN DOWN ----------


          k = 0.0000 0.0000 0.0000 (   321 PWs)   bands (ev):

   -63.9237 -29.5603 -29.5603 -29.5603  12.6782  21.0049  21.0049  21.0049
    23.4951  23.4951  48.0242  48.0242

          k = 0.0000-0.1329 0.1329 (   293 PWs)   bands (ev):

   -63.9008 -29.6174 -29.5517 -29.5163  13.5238  20.7538  20.9485  21.4642
    23.2487  23.5182  45.3711  47.2953

          k = 0.0000-0.2658 0.2658 (   281 PWs)   bands (ev):

   -63.8451 -29.8815 -29.6241 -29.5013  15.4998  20.1778  20.7602  22.6710
    23.0726  23.6084  40.4319  45.0127

          k = 0.0000-0.3986 0.3986 (   286 PWs)   bands (ev):

   -63.7890 -30.1710 -29.7141 -29.5173  17.0469  19.6417  21.6512  23.2592
    23.7532  24.0502  34.9816  42.7579

          k = 0.0000 0.5315-0.5315 (   276 PWs)   bands (ev):

   -63.7657 -30.2598 -29.7436 -29.4993  17.2622  19.4303  23.3447  23.5190
    23.8322  24.6931  32.0619  41.9657

          k =-0.1329-0.1329 0.2658 (   282 PWs)   bands (ev):

   -63.8614 -29.7969 -29.5776 -29.5267  14.9451  20.4696  20.5557  22.4165
    22.9569  23.6593  42.7122  44.1832

          k =-0.1329-0.2658 0.3986 (   283 PWs)   bands (ev):

   -63.8055 -30.0441 -29.6859 -29.5473  16.9439  19.9003  20.4296  22.9862
    23.7172  24.1481  37.9154  41.5305

          k =-0.1329 0.6644-0.5315 (   283 PWs)   bands (ev):

   -63.7657 -30.2137 -29.7703 -29.5509  17.6651  19.5414  21.5064  23.2519
    23.9658  25.9517  33.0465  40.1684

          k =-0.2658 0.7973-0.5315 (   284 PWs)   bands (ev):

   -63.7657 -30.1278 -29.8235 -29.5924  18.3579  19.5818  20.2722  23.1264
    23.8476  26.6221  35.7059  36.5884

          k =-0.2658 0.6644-0.3986 (   282 PWs)   bands (ev):

   -63.7492 -30.1249 -29.9129 -29.5981  18.6299  19.5922  20.4356  23.3674
    23.8039  29.2870  32.2166  35.5477

          k = 0.0000 0.0000 0.2658 (   289 PWs)   bands (ev):

   -63.8788 -29.6514 -29.5804 -29.5804  14.2530  21.0026  21.0026  21.4626
    22.5773  23.8271  44.3294  47.2187

          k = 0.0000-0.1329 0.3986 (   285 PWs)   bands (ev):

   -63.8254 -29.8870 -29.6690 -29.5898  16.1155  20.6294  20.7707  22.1934
    22.5563  24.1080  40.8167  44.2388

          k = 0.0000-0.2658 0.5315 (   281 PWs)   bands (ev):

   -63.7717 -30.1296 -29.7497 -29.5963  17.6129  20.1608  20.7106  22.7181
    23.9692  24.9289  35.4495  42.3918

          k = 0.0000 0.6644-0.3986 (   284 PWs)   bands (ev):

   -63.7494 -30.2394 -29.7892 -29.6118  17.7714  19.9711  21.1541  22.8056
    24.6370  26.5024  32.1075  41.7019

          k =-0.1329-0.1329 0.5315 (   283 PWs)   bands (ev):

   -63.7743 -30.0399 -29.7763 -29.6518  17.7730  19.9860  20.8118  22.2109
    23.5204  25.0444  38.5772  39.4000

          k =-0.1329 0.7973-0.3986 (   281 PWs)   bands (ev):

   -63.7379 -30.1527 -29.8707 -29.6603  18.5137  19.8423  20.4660  22.7261
    24.0917  27.7809  33.6439  37.7197

          k =-0.2658 0.2658 0.2658 (   294 PWs)   bands (ev):

   -63.8194 -30.0163 -29.6150 -29.6150  16.6564  19.8839  19.8839  23.4618
    23.4618  24.0779  40.4126  40.4126

          k =-0.2658 0.7973-0.2658 (   285 PWs)   bands (ev):

   -63.7239 -30.0597 -30.0597 -29.6711  19.4340  19.4340  19.7999  23.5386
    23.5386  31.7539  31.7539  33.9428

          k = 0.6644-0.6644 0.2658 (   281 PWs)   bands (ev):

   -63.7772 -30.1224 -29.7358 -29.6027  18.2670  19.4427  20.0890  23.5128
    23.7648  26.2667  35.6190  38.8673

          k = 0.5315-0.5315 0.2658 (   282 PWs)   bands (ev):

   -63.7597 -30.1539 -29.8079 -29.6167  18.3129  19.2884  21.0188  23.5871
    23.8624  28.2316  32.1601  38.2211

          k = 0.5315-0.6644 0.3986 (   292 PWs)   bands (ev):

   -63.7573 -30.0814 -29.8763 -29.6948  18.9404  19.4796  19.9360  23.7128
    23.8458  29.3129  33.6874  34.8748

          k = 0.0000 0.0000 0.5315 (   293 PWs)   bands (ev):

   -63.7779 -29.9333 -29.7748 -29.7748  17.4411  20.4518  21.5221  21.5221
    22.6037  24.7890  41.5320  42.4193

          k = 0.0000-0.1329 0.6644 (   278 PWs)   bands (ev):

   -63.7300 -30.0655 -29.8435 -29.7860  18.4697  19.4388  21.5467  22.2294
    23.7903  26.6755  36.7925  40.2212

          k = 0.0000 0.7973-0.2658 (   276 PWs)   bands (ev):

   -63.7101 -30.1470 -29.8744 -29.7846  18.4992  19.3156  21.4504  22.3845
    24.5032  29.7074  32.4478  39.3006

          k =-0.1329 0.9301-0.2658 (   274 PWs)   bands (ev):

   -63.6986 -30.0802 -29.9727 -29.8031  18.7091  18.7446  21.5917  23.2188
    24.0864  30.1178  34.9469  35.4829

          k = 0.5315-0.5315 0.5315 (   276 PWs)   bands (ev):

   -63.7538 -29.8669 -29.8669 -29.8669  19.5482  19.5482  19.5482  23.8935
    23.8935  33.1338  33.1338  33.1338

          k = 0.0000 0.0000 0.7973 (   265 PWs)   bands (ev):

   -63.6882 -30.0068 -29.9317 -29.9317  18.3527  18.5013  23.0794  23.0794
    23.8027  29.2852  37.4321  37.4321

          k = 0.0000 0.9301-0.1329 (   274 PWs)   bands (ev):

   -63.6708 -30.0718 -29.9803 -29.9547  18.0960  18.1400  23.3142  23.5533
    24.3704  32.7112  33.5739  36.1082

          k = 0.0000 0.0000-1.0630 (   266 PWs)   bands (ev):

   -63.6544 -30.0209 -30.0209 -30.0209  17.7447  17.7447  24.3161  24.3161
    24.3161  34.7345  34.7345  34.7345

     the Fermi energy is    22.1467 ev

!    total energy              =    -329.16155495 Ry
     Harris-Foulkes estimate   =    -329.16155495 Ry
     estimated scf accuracy    <          5.5E-11 Ry

     total all-electron energy =     -2545.458090 Ry

     The total energy is the sum of the following terms:

     one-electron contribution =     -95.84112703 Ry
     hartree contribution      =      60.58012200 Ry
     xc contribution           =     -34.93785149 Ry
     ewald contribution        =    -182.82524139 Ry
     one-center paw contrib.   =     -76.13708096 Ry
     smearing contrib. (-TS)   =      -0.00037607 Ry

     total magnetization       =     1.96 Bohr mag/cell
     absolute magnetization    =     2.05 Bohr mag/cell

     convergence has been achieved in  10 iterations

     Forces acting on atoms (cartesian axes, Ry/au):

     atom    1 type  1   force =     0.00000000    0.00000000    0.00000000

     Total force =     0.000000     Total SCF correction =     0.000000


     Computing stress (Cartesian axis) and pressure

          total   stress  (Ry/bohr**3)                   (kbar)     P= -452.00
  -0.00307266   0.00000000  -0.00000000       -452.00      0.00     -0.00
   0.00000000  -0.00307266   0.00000000          0.00   -452.00      0.00
   0.00000000   0.00000000  -0.00307266          0.00      0.00   -452.00


     Writing output data file fe.save/
 
     init_run     :      1.29s CPU      1.75s WALL (       2 calls)
     electrons    :     61.82s CPU     70.23s WALL (       7 calls)
     update_pot   :      1.40s CPU      1.63s WALL (       5 calls)
     forces       :      0.50s CPU      0.59s WALL (       7 calls)
     stress       :      1.01s CPU      1.07s WALL (       7 calls)

     Called by init_run:
     wfcinit      :      0.16s CPU      0.21s WALL (       2 calls)
     potinit      :      0.73s CPU      0.87s WALL (       2 calls)
     hinit0       :      0.37s CPU      0.61s WALL (       2 calls)

     Called by electrons:
     c_bands      :     28.06s CPU     32.02s WALL (     117 calls)
     sum_band     :      6.80s CPU      7.81s WALL (     117 calls)
     v_of_rho     :      1.03s CPU      1.12s WALL (     123 calls)
     newd         :      0.94s CPU      1.24s WALL (     123 calls)
     PAW_pot      :     27.30s CPU     30.74s WALL (     128 calls)
     mix_rho      :      0.17s CPU      0.19s WALL (     117 calls)

     Called by c_bands:
     init_us_2    :      0.59s CPU      0.67s WALL (   14790 calls)
     cegterg      :     26.27s CPU     29.96s WALL (    6786 calls)

     Called by sum_band:
     sum_band:bec :      0.06s CPU      0.07s WALL (    7076 calls)
     addusdens    :      1.69s CPU      1.88s WALL (     117 calls)

     Called by *egterg:
     h_psi        :     19.16s CPU     21.87s WALL (   20900 calls)
     s_psi        :      0.27s CPU      0.30s WALL (   20900 calls)
     g_psi        :      0.07s CPU      0.08s WALL (   13998 calls)
     cdiaghg      :      4.42s CPU      5.00s WALL (   20436 calls)

     Called by h_psi:
     h_psi:pot    :     19.03s CPU     21.73s WALL (   20900 calls)
     h_psi:calbec :      0.76s CPU      0.88s WALL (   20900 calls)
     vloc_psi     :     17.80s CPU     20.32s WALL (   20900 calls)
     add_vuspsi   :      0.35s CPU      0.39s WALL (   20900 calls)

     General routines
     calbec       :      1.07s CPU      1.26s WALL (   30006 calls)
     fft          :      0.67s CPU      0.77s WALL (    3348 calls)
     ffts         :      0.03s CPU      0.04s WALL (     480 calls)
     fftw         :     19.66s CPU     22.60s WALL (  481898 calls)
     interpolate  :      0.07s CPU      0.07s WALL (     246 calls)
 
     Parallel routines
     fft_scatt_xy :      1.82s CPU      2.04s WALL (  485726 calls)
     fft_scatt_yz :      7.94s CPU      9.47s WALL (  485726 calls)
 
     PWSCF        :   1m 8.36s CPU   1m17.85s WALL

 
   This run was terminated on:   1:17:23  24Jul2019            

=------------------------------------------------------------------------------=
   JOB DONE.
=------------------------------------------------------------------------------=
