
     Program PWSCF v.6.4.1 starts on 24Jul2019 at  1:21:48 

     This program is part of the open-source Quantum ESPRESSO suite
     for quantum simulation of materials; please cite
         "P. Giannozzi et al., J. Phys.:Condens. Matter 21 395502 (2009);
         "P. Giannozzi et al., J. Phys.:Condens. Matter 29 465901 (2017);
          URL http://www.quantum-espresso.org", 
     in publications or presentations arising from this work. More details at
     http://www.quantum-espresso.org/quote

     Parallel version (MPI), running on     4 processors

     MPI processes distributed on     1 nodes
     R & G space division:  proc/nbgrp/npool/nimage =       4
     Reading input from fe.2_scf.in

     Current dimensions of program PWSCF are:
     Max number of different atomic species (ntypx) = 10
     Max number of k-points (npk) =  40000
     Max angular momentum in pseudopotentials (lmaxx) =  3
               file Fe.pbe-spn-kjpaw_psl.0.2.1.UPF: wavefunction(s)  3D renormalized

     Subspace diagonalization in iterative solution of the eigenvalue problem:
     a serial algorithm will be used

 
     Parallelization info
     --------------------
     sticks:   dense  smooth     PW     G-vecs:    dense   smooth      PW
     Min         117      57     20                 1614      560     114
     Max         118      58     21                 1615      563     115
     Sum         471     229     83                 6459     2243     459
 


     bravais-lattice index     =            3
     lattice parameter (alat)  =       5.0958  a.u.
     unit-cell volume          =      66.1624 (a.u.)^3
     number of atoms/cell      =            1
     number of atomic types    =            1
     number of electrons       =        16.00
     number of Kohn-Sham states=           12
     kinetic-energy cutoff     =      40.0000  Ry
     charge density cutoff     =     320.0000  Ry
     convergence threshold     =      1.0E-08
     mixing beta               =       0.7000
     number of iterations used =            8  plain     mixing
     Exchange-correlation      = SLA PW PBX PBC ( 1  4  3  4 0 0)

     celldm(1)=   5.095816  celldm(2)=   0.000000  celldm(3)=   0.000000
     celldm(4)=   0.000000  celldm(5)=   0.000000  celldm(6)=   0.000000

     crystal axes: (cart. coord. in units of alat)
               a(1) = (   0.500000   0.500000   0.500000 )  
               a(2) = (  -0.500000   0.500000   0.500000 )  
               a(3) = (  -0.500000  -0.500000   0.500000 )  

     reciprocal axes: (cart. coord. in units 2 pi/alat)
               b(1) = (  1.000000  0.000000  1.000000 )  
               b(2) = ( -1.000000  1.000000  0.000000 )  
               b(3) = (  0.000000 -1.000000  1.000000 )  


     PseudoPot. # 1 for Fe read from file:
     /home/bngjn/qe/SSSP_precision_pseudos/Fe.pbe-spn-kjpaw_psl.0.2.1.UPF
     MD5 check sum: e86618425769142926afa95317d90200
     Pseudo is Projector augmented-wave + core cor, Zval = 16.0
     Generated using "atomic" code by A. Dal Corso v.5.0.99 svn rev. 10869
     Shape of augmentation charge: PSQ
     Using radial grid of 1191 points,  6 beta functions with: 
                l(1) =   0
                l(2) =   0
                l(3) =   1
                l(4) =   1
                l(5) =   2
                l(6) =   2
     Q(r) pseudized with 0 coefficients 


     atomic species   valence    mass     pseudopotential
        Fe            16.00    55.84500     Fe( 1.00)

     Starting magnetic structure 
     atomic species   magnetization
        Fe           0.100

     48 Sym. Ops., with inversion, found



   Cartesian axes

     site n.     atom                  positions (alat units)
         1           Fe  tau(   1) = (   0.0000000   0.0000000   0.0000000  )

     number of k points=    47  Marzari-Vanderbilt smearing, width (Ry)=  0.0100
                       cart. coord. in units 2pi/alat
        k(    1) = (   0.0000000   0.0000000   0.0000000), wk =   0.0010000
        k(    2) = (   0.0000000  -0.1000000   0.1000000), wk =   0.0120000
        k(    3) = (   0.0000000  -0.2000000   0.2000000), wk =   0.0120000
        k(    4) = (   0.0000000  -0.3000000   0.3000000), wk =   0.0120000
        k(    5) = (   0.0000000  -0.4000000   0.4000000), wk =   0.0120000
        k(    6) = (   0.0000000   0.5000000  -0.5000000), wk =   0.0060000
        k(    7) = (  -0.1000000  -0.1000000   0.2000000), wk =   0.0240000
        k(    8) = (  -0.1000000  -0.2000000   0.3000000), wk =   0.0480000
        k(    9) = (  -0.1000000  -0.3000000   0.4000000), wk =   0.0480000
        k(   10) = (  -0.1000000   0.6000000  -0.5000000), wk =   0.0480000
        k(   11) = (  -0.2000000  -0.2000000   0.4000000), wk =   0.0240000
        k(   12) = (  -0.2000000   0.7000000  -0.5000000), wk =   0.0480000
        k(   13) = (  -0.2000000   0.6000000  -0.4000000), wk =   0.0240000
        k(   14) = (  -0.3000000   0.7000000  -0.4000000), wk =   0.0240000
        k(   15) = (   0.0000000   0.0000000   0.2000000), wk =   0.0060000
        k(   16) = (   0.0000000  -0.1000000   0.3000000), wk =   0.0240000
        k(   17) = (   0.0000000  -0.2000000   0.4000000), wk =   0.0240000
        k(   18) = (   0.0000000  -0.3000000   0.5000000), wk =   0.0240000
        k(   19) = (   0.0000000   0.6000000  -0.4000000), wk =   0.0120000
        k(   20) = (  -0.1000000  -0.1000000   0.4000000), wk =   0.0240000
        k(   21) = (  -0.1000000  -0.2000000   0.5000000), wk =   0.0480000
        k(   22) = (  -0.1000000   0.7000000  -0.4000000), wk =   0.0480000
        k(   23) = (  -0.2000000   0.2000000   0.2000000), wk =   0.0080000
        k(   24) = (  -0.2000000   0.8000000  -0.4000000), wk =   0.0240000
        k(   25) = (  -0.2000000   0.7000000  -0.3000000), wk =   0.0240000
        k(   26) = (  -0.3000000   0.3000000   0.2000000), wk =   0.0240000
        k(   27) = (   0.6000000  -0.6000000   0.2000000), wk =   0.0240000
        k(   28) = (   0.6000000  -0.7000000   0.3000000), wk =   0.0240000
        k(   29) = (   0.5000000  -0.5000000   0.2000000), wk =   0.0120000
        k(   30) = (   0.5000000  -0.6000000   0.3000000), wk =   0.0480000
        k(   31) = (   0.4000000  -0.6000000   0.4000000), wk =   0.0080000
        k(   32) = (   0.0000000   0.0000000   0.4000000), wk =   0.0060000
        k(   33) = (   0.0000000  -0.1000000   0.5000000), wk =   0.0240000
        k(   34) = (   0.0000000  -0.2000000   0.6000000), wk =   0.0240000
        k(   35) = (   0.0000000   0.7000000  -0.3000000), wk =   0.0120000
        k(   36) = (  -0.1000000  -0.1000000   0.6000000), wk =   0.0240000
        k(   37) = (  -0.1000000   0.8000000  -0.3000000), wk =   0.0480000
        k(   38) = (  -0.2000000   0.8000000  -0.2000000), wk =   0.0080000
        k(   39) = (   0.6000000  -0.6000000   0.4000000), wk =   0.0080000
        k(   40) = (   0.5000000  -0.5000000   0.4000000), wk =   0.0120000
        k(   41) = (   0.0000000   0.0000000   0.6000000), wk =   0.0060000
        k(   42) = (   0.0000000  -0.1000000   0.7000000), wk =   0.0240000
        k(   43) = (   0.0000000   0.8000000  -0.2000000), wk =   0.0120000
        k(   44) = (  -0.1000000   0.9000000  -0.2000000), wk =   0.0240000
        k(   45) = (   0.0000000   0.0000000   0.8000000), wk =   0.0060000
        k(   46) = (   0.0000000   0.9000000  -0.1000000), wk =   0.0120000
        k(   47) = (   0.0000000   0.0000000  -1.0000000), wk =   0.0010000

     Dense  grid:     6459 G-vectors     FFT dimensions: (  25,  25,  25)

     Smooth grid:     2243 G-vectors     FFT dimensions: (  18,  18,  18)

     Estimated max dynamical RAM per process >       8.65 MB

     Estimated total dynamical RAM >      34.62 MB
     Generating pointlists ...
     new r_m :   0.3572 (alat units)  1.8204 (a.u.) for type    1

     Check: negative core charge=   -0.000327

     Initial potential from superposition of free atoms

     starting charge   15.99956, renormalised to   16.00000
     Starting wfcs are   13 randomized atomic wfcs
     Checking if some PAW data can be deallocated... 

     total cpu time spent up to now is        1.7 secs

     Self-consistent Calculation

     iteration #  1     ecut=    40.00 Ry     beta= 0.70
     Davidson diagonalization with overlap
     ethr =  1.00E-02,  avg # of iterations =  3.8

     Threshold (ethr) on eigenvalues was too large:
     Diagonalizing with lowered threshold

     Davidson diagonalization with overlap
     ethr =  2.48E-04,  avg # of iterations =  2.0

     total cpu time spent up to now is        2.8 secs

     total energy              =    -329.13829345 Ry
     Harris-Foulkes estimate   =    -329.15597317 Ry
     estimated scf accuracy    <       0.03997129 Ry

     total magnetization       =     1.66 Bohr mag/cell
     absolute magnetization    =     1.66 Bohr mag/cell

     iteration #  2     ecut=    40.00 Ry     beta= 0.70
     Davidson diagonalization with overlap
     ethr =  2.50E-04,  avg # of iterations =  2.1

     total cpu time spent up to now is        3.5 secs

     total energy              =    -329.14477374 Ry
     Harris-Foulkes estimate   =    -329.17748053 Ry
     estimated scf accuracy    <       0.08897080 Ry

     total magnetization       =     1.90 Bohr mag/cell
     absolute magnetization    =     1.91 Bohr mag/cell

     iteration #  3     ecut=    40.00 Ry     beta= 0.70
     Davidson diagonalization with overlap
     ethr =  2.50E-04,  avg # of iterations =  2.0

     total cpu time spent up to now is        4.1 secs

     total energy              =    -329.16118614 Ry
     Harris-Foulkes estimate   =    -329.15918548 Ry
     estimated scf accuracy    <       0.00235919 Ry

     total magnetization       =     1.86 Bohr mag/cell
     absolute magnetization    =     1.89 Bohr mag/cell

     iteration #  4     ecut=    40.00 Ry     beta= 0.70
     Davidson diagonalization with overlap
     ethr =  1.47E-05,  avg # of iterations =  2.9

     total cpu time spent up to now is        4.8 secs

     total energy              =    -329.16244943 Ry
     Harris-Foulkes estimate   =    -329.16231323 Ry
     estimated scf accuracy    <       0.00014511 Ry

     total magnetization       =     1.92 Bohr mag/cell
     absolute magnetization    =     1.98 Bohr mag/cell

     iteration #  5     ecut=    40.00 Ry     beta= 0.70
     Davidson diagonalization with overlap
     ethr =  9.07E-07,  avg # of iterations =  1.9

     total cpu time spent up to now is        5.5 secs

     total energy              =    -329.16251091 Ry
     Harris-Foulkes estimate   =    -329.16248992 Ry
     estimated scf accuracy    <       0.00002163 Ry

     total magnetization       =     1.92 Bohr mag/cell
     absolute magnetization    =     1.99 Bohr mag/cell

     iteration #  6     ecut=    40.00 Ry     beta= 0.70
     Davidson diagonalization with overlap
     ethr =  1.35E-07,  avg # of iterations =  1.6

     total cpu time spent up to now is        6.1 secs

     total energy              =    -329.16251824 Ry
     Harris-Foulkes estimate   =    -329.16251798 Ry
     estimated scf accuracy    <       0.00000197 Ry

     total magnetization       =     1.93 Bohr mag/cell
     absolute magnetization    =     2.00 Bohr mag/cell

     iteration #  7     ecut=    40.00 Ry     beta= 0.70
     Davidson diagonalization with overlap
     ethr =  1.23E-08,  avg # of iterations =  2.6

     total cpu time spent up to now is        6.8 secs

     total energy              =    -329.16252068 Ry
     Harris-Foulkes estimate   =    -329.16252047 Ry
     estimated scf accuracy    <       0.00000011 Ry

     total magnetization       =     1.93 Bohr mag/cell
     absolute magnetization    =     2.01 Bohr mag/cell

     iteration #  8     ecut=    40.00 Ry     beta= 0.70
     Davidson diagonalization with overlap
     ethr =  7.11E-10,  avg # of iterations =  2.2
 
     Magnetic moment per site:
     atom:    1    charge:   14.3011    magn:    1.9522    constr:    0.0000

     total cpu time spent up to now is        7.4 secs

     End of self-consistent calculation

 ------ SPIN UP ------------


          k = 0.0000 0.0000 0.0000 (   321 PWs)   bands (ev):

   -66.2930 -31.8970 -31.8970 -31.8970  12.4887  19.3669  19.3669  19.3669
    20.8639  20.8639  48.2103  48.2103

          k = 0.0000-0.1000 0.1000 (   293 PWs)   bands (ev):

   -66.2792 -31.8994 -31.8675 -31.8464  13.0658  19.2245  19.3484  19.6452
    20.7338  20.8776  46.0857  47.6653

          k = 0.0000-0.2000 0.2000 (   281 PWs)   bands (ev):

   -66.2427 -32.0688 -31.9067 -31.8301  14.4335  18.8609  19.2374  20.4136
    20.6232  20.9228  42.0987  45.9798

          k = 0.0000-0.3000 0.3000 (   283 PWs)   bands (ev):

   -66.1973 -32.3021 -31.9794 -31.8391  15.8056  18.4334  19.5868  20.7940
    21.0030  21.4512  37.4633  43.9507

          k = 0.0000-0.4000 0.4000 (   282 PWs)   bands (ev):

   -66.1604 -32.4739 -32.0362 -31.8491  16.1660  18.1033  20.8301  21.0889
    21.7786  22.3818  33.0759  42.4393

          k = 0.0000 0.5000-0.5000 (   276 PWs)   bands (ev):

   -66.1462 -32.5292 -32.0576 -31.8299  16.1190  17.9809  20.9824  21.1276
    22.7654  23.4389  30.7923  41.9796

          k =-0.1000-0.1000 0.2000 (   288 PWs)   bands (ev):

   -66.2540 -32.0231 -31.8883 -31.8575  13.9997  19.0520  19.1268  20.2374
    20.5617  20.9530  43.7828  45.2934

          k =-0.1000-0.2000 0.3000 (   282 PWs)   bands (ev):

   -66.2130 -32.2042 -31.9441 -31.8630  15.5039  18.6540  18.9679  20.5597
    21.0639  21.3111  39.9731  43.0364

          k =-0.1000-0.3000 0.4000 (   284 PWs)   bands (ev):

   -66.1718 -32.3971 -32.0274 -31.8663  16.3966  18.2756  19.6360  20.8248
    21.2515  22.6899  35.3516  41.4553

          k =-0.1000 0.6000-0.5000 (   280 PWs)   bands (ev):

   -66.1463 -32.5053 -32.0665 -31.8623  16.3909  18.0645  20.4867  20.9568
    21.8363  24.4384  31.5574  40.5752

          k =-0.2000-0.2000 0.4000 (   282 PWs)   bands (ev):

   -66.1762 -32.3395 -32.0204 -31.8938  16.7519  18.3225  18.8316  20.6229
    21.2545  22.8936  37.8077  38.9663

          k =-0.2000 0.7000-0.5000 (   285 PWs)   bands (ev):

   -66.1463 -32.4314 -32.1213 -31.9121  17.0905  18.1400  19.2585  20.8628
    21.4582  25.1303  33.7541  37.2166

          k =-0.2000 0.6000-0.4000 (   286 PWs)   bands (ev):

   -66.1349 -32.4595 -32.1664 -31.9145  17.0113  18.1225  19.5069  20.9707
    21.6365  27.0542  31.0088  36.7141

          k =-0.3000 0.7000-0.4000 (   285 PWs)   bands (ev):

   -66.1306 -32.3805 -32.2544 -31.9309  17.5563  18.1716  18.8207  21.1062
    21.4308  28.3122  32.0815  33.7192

          k = 0.0000 0.0000 0.2000 (   289 PWs)   bands (ev):

   -66.2656 -31.9247 -31.8803 -31.8803  13.5487  19.3763  19.3763  19.6438
    20.3865  21.0537  44.9911  47.5871

          k = 0.0000-0.1000 0.3000 (   289 PWs)   bands (ev):

   -66.2301 -32.0771 -31.9550 -31.8996  14.8121  19.1199  19.2583  20.1285
    20.3398  21.2395  42.1469  45.4156

          k = 0.0000-0.2000 0.4000 (   281 PWs)   bands (ev):

   -66.1859 -32.2899 -32.0024 -31.8842  16.1615  18.7314  19.0998  20.5129
    21.3889  21.6251  37.7988  43.3349

          k = 0.0000-0.3000 0.5000 (   282 PWs)   bands (ev):

   -66.1501 -32.4583 -32.0631 -31.8946  16.4641  18.4240  19.5880  20.7721
    22.3388  23.2093  33.3485  42.0360

          k = 0.0000 0.6000-0.4000 (   284 PWs)   bands (ev):

   -66.1363 -32.5234 -32.0873 -31.9111  16.3928  18.3094  19.8885  20.7405
    22.7318  24.8477  30.8551  41.5372

          k =-0.1000-0.1000 0.4000 (   283 PWs)   bands (ev):

   -66.1913 -32.2238 -32.0047 -31.9209  16.1118  18.7349  19.2066  20.0821
    21.0806  21.7393  40.0278  41.6080

          k =-0.1000-0.2000 0.5000 (   287 PWs)   bands (ev):

   -66.1524 -32.3755 -32.0966 -31.9526  16.9133  18.3673  19.1105  20.4946
    21.6784  23.3774  35.9746  39.3991

          k =-0.1000 0.7000-0.4000 (   282 PWs)   bands (ev):

   -66.1283 -32.4652 -32.1314 -31.9547  16.8654  18.5204  19.0372  20.6811
    22.2671  25.9449  31.9141  38.5700

          k =-0.2000 0.2000 0.2000 (   288 PWs)   bands (ev):

   -66.2233 -32.1777 -31.9018 -31.9018  15.2215  18.6793  18.6793  20.8216
    20.8216  21.3267  41.9352  41.9352

          k =-0.2000 0.8000-0.4000 (   284 PWs)   bands (ev):

   -66.1253 -32.4097 -32.2014 -31.9676  17.5666  17.8512  18.9338  20.8536
    21.8103  26.2323  34.2738  35.2911

          k =-0.2000 0.7000-0.3000 (   284 PWs)   bands (ev):

   -66.1149 -32.4084 -32.2614 -31.9746  17.5294  18.2980  18.3965  21.1326
    21.8578  28.9319  31.3173  34.4605

          k =-0.3000 0.3000 0.2000 (   281 PWs)   bands (ev):

   -66.1853 -32.3247 -31.9698 -31.8958  16.6749  18.2831  18.6177  20.8652
    21.0058  22.8251  37.9236  40.3637

          k = 0.6000-0.6000 0.2000 (   281 PWs)   bands (ev):

   -66.1544 -32.4370 -32.0624 -31.8930  16.8978  18.0237  19.7497  21.0004
    21.1098  24.7535  33.5372  39.2929

          k = 0.6000-0.7000 0.3000 (   281 PWs)   bands (ev):

   -66.1575 -32.3926 -32.0440 -31.9414  17.5476  18.1082  18.6064  20.9795
    21.1341  24.9113  36.0209  36.9680

          k = 0.5000-0.5000 0.2000 (   282 PWs)   bands (ev):

   -66.1426 -32.4589 -32.1069 -31.9121  16.7935  17.9303  20.4913  21.0604
    21.1438  26.4481  30.9161  38.8270

          k = 0.5000-0.6000 0.3000 (   287 PWs)   bands (ev):

   -66.1403 -32.3995 -32.1572 -31.9660  17.4755  18.0295  19.2494  21.0936
    21.2046  27.5022  32.2520  35.7083

          k = 0.4000-0.6000 0.4000 (   291 PWs)   bands (ev):

   -66.1349 -32.2908 -32.2908 -32.0006  17.6335  18.5746  18.5746  21.1869
    21.1869  30.6478  30.6478  33.1338

          k = 0.0000 0.0000 0.4000 (   293 PWs)   bands (ev):

   -66.1971 -32.1420 -32.0107 -32.0107  15.8570  19.1427  19.6175  19.6175
    20.3810  21.7064  41.8071  44.1775

          k = 0.0000-0.1000 0.5000 (   286 PWs)   bands (ev):

   -66.1563 -32.2800 -32.0686 -32.0338  16.8590  18.3669  19.5346  20.1353
    21.2530  22.6930  38.7153  42.1324

          k = 0.0000-0.2000 0.6000 (   282 PWs)   bands (ev):

   -66.1231 -32.4148 -32.1212 -32.0316  17.0113  18.1970  19.3229  20.4382
    22.2284  25.0392  34.1491  40.8326

          k = 0.0000 0.7000-0.3000 (   284 PWs)   bands (ev):

   -66.1104 -32.4700 -32.1513 -32.0399  16.8640  18.3062  19.2355  20.4606
    22.6445  27.3470  31.0928  40.1867

          k =-0.1000-0.1000 0.6000 (   281 PWs)   bands (ev):

   -66.1211 -32.3506 -32.1566 -32.0610  17.3096  17.6924  19.6630  20.5589
    21.7936  24.8102  36.9563  37.7432

          k =-0.1000 0.8000-0.3000 (   280 PWs)   bands (ev):

   -66.0992 -32.4038 -32.2258 -32.0658  17.1434  17.6545  19.4413  20.9620
    22.2803  28.0265  32.7989  36.4397

          k =-0.2000 0.8000-0.2000 (   279 PWs)   bands (ev):

   -66.0901 -32.3438 -32.3438 -32.0536  17.3246  17.3246  19.2994  21.8196
    21.8196  31.4190  31.4190  33.3777

          k = 0.6000-0.6000 0.4000 (   282 PWs)   bands (ev):

   -66.1424 -32.3669 -32.0587 -32.0587  18.0527  18.0527  18.6035  21.1365
    21.1365  27.5128  34.8991  34.8991

          k = 0.5000-0.5000 0.4000 (   288 PWs)   bands (ev):

   -66.1366 -32.2950 -32.1893 -32.0752  18.0477  18.0498  18.7933  21.1640
    21.1705  30.2037  31.7209  34.4553

          k = 0.0000 0.0000 0.6000 (   277 PWs)   bands (ev):

   -66.1194 -32.2856 -32.1314 -32.1314  17.1568  17.6525  20.4294  20.4294
    21.3240  24.3249  39.9576  39.9576

          k = 0.0000-0.1000 0.7000 (   277 PWs)   bands (ev):

   -66.0896 -32.3512 -32.2025 -32.1671  16.9866  17.1572  20.5789  20.8895
    22.1024  27.0886  35.5791  38.1045

          k = 0.0000 0.8000-0.2000 (   276 PWs)   bands (ev):

   -66.0782 -32.3954 -32.2228 -32.1632  16.7646  17.0933  20.5506  21.0319
    22.5376  30.1171  31.9296  37.4568

          k =-0.1000 0.9000-0.2000 (   272 PWs)   bands (ev):

   -66.0701 -32.3562 -32.2915 -32.1587  16.7081  16.7847  20.7044  21.7242
    22.2916  30.3708  34.1327  34.8215

          k = 0.0000 0.0000 0.8000 (   269 PWs)   bands (ev):

   -66.0624 -32.3102 -32.2613 -32.2613  16.4987  16.5580  21.6831  21.6831
    22.1119  29.8133  36.1602  36.1602

          k = 0.0000 0.9000-0.1000 (   274 PWs)   bands (ev):

   -66.0521 -32.3497 -32.2888 -32.2764  16.2902  16.3282  21.8396  21.9994
    22.4516  32.7140  33.3572  35.3453

          k = 0.0000 0.0000-1.0000 (   266 PWs)   bands (ev):

   -66.0421 -32.3113 -32.3113 -32.3113  16.0716  16.0716  22.4190  22.4190
    22.4190  34.5361  34.5361  34.5361

 ------ SPIN DOWN ----------


          k = 0.0000 0.0000 0.0000 (   321 PWs)   bands (ev):

   -63.9698 -29.6050 -29.6050 -29.6050  12.6882  20.9613  20.9613  20.9613
    23.4733  23.4733  48.0428  48.0428

          k = 0.0000-0.1000 0.1000 (   293 PWs)   bands (ev):

   -63.9549 -29.6186 -29.5809 -29.5580  13.2641  20.7978  20.9311  21.2577
    23.3005  23.4878  46.2005  47.6039

          k = 0.0000-0.2000 0.2000 (   281 PWs)   bands (ev):

   -63.9157 -29.8047 -29.6262 -29.5428  14.6645  20.3834  20.7859  22.0798
    23.0631  23.5404  42.5463  46.0493

          k = 0.0000-0.3000 0.3000 (   283 PWs)   bands (ev):

   -63.8669 -30.0552 -29.7038 -29.5519  16.3045  19.9004  20.8365  23.0978
    23.1994  23.6418  38.1754  44.0251

          k = 0.0000-0.4000 0.4000 (   282 PWs)   bands (ev):

   -63.8273 -30.2413 -29.7644 -29.5617  17.1578  19.5303  22.1570  23.2709
    23.7560  24.2159  34.0623  42.4725

          k = 0.0000 0.5000-0.5000 (   276 PWs)   bands (ev):

   -63.8121 -30.3027 -29.7878 -29.5439  17.2487  19.3937  23.3142  23.5314
    23.8086  24.6392  32.0388  41.9829

          k =-0.1000-0.1000 0.2000 (   288 PWs)   bands (ev):

   -63.9278 -29.7532 -29.6042 -29.5708  14.2107  20.5935  20.6948  21.8781
    23.0481  23.5645  44.0999  45.5218

          k =-0.1000-0.2000 0.3000 (   282 PWs)   bands (ev):

   -63.8838 -29.9508 -29.6665 -29.5771  15.8195  20.1510  20.4597  22.9023
    22.9711  23.7070  40.5435  43.3505

          k =-0.1000-0.3000 0.4000 (   284 PWs)   bands (ev):

   -63.8395 -30.1571 -29.7551 -29.5813  17.1839  19.7167  20.8106  23.0780
    23.7637  24.3523  36.1656  41.7554

          k =-0.1000 0.6000-0.5000 (   280 PWs)   bands (ev):

   -63.8121 -30.2745 -29.7984 -29.5779  17.5117  19.4720  21.9286  23.2544
    23.9701  25.6461  32.6702  40.8450

          k =-0.2000-0.2000 0.4000 (   282 PWs)   bands (ev):

   -63.8443 -30.0959 -29.7488 -29.6107  17.3416  19.8488  20.1312  22.9065
    23.7435  24.5652  38.4905  39.4825

          k =-0.2000 0.7000-0.5000 (   285 PWs)   bands (ev):

   -63.8121 -30.1935 -29.8566 -29.6297  18.1631  19.5707  20.4895  23.1224
    23.8389  26.4847  34.6160  37.7947

          k =-0.2000 0.6000-0.4000 (   286 PWs)   bands (ev):

   -63.7998 -30.2238 -29.9046 -29.6323  18.2194  19.5109  20.8788  23.2622
    23.8812  28.0642  32.1199  37.2902

          k =-0.3000 0.7000-0.4000 (   285 PWs)   bands (ev):

   -63.7952 -30.1392 -30.0002 -29.6496  18.7876  19.5807  20.1635  23.3620
    23.7153  29.3714  32.9791  34.4728

          k = 0.0000 0.0000 0.2000 (   289 PWs)   bands (ev):

   -63.9404 -29.6460 -29.5960 -29.5960  13.7518  20.9466  20.9466  21.2584
    22.8756  23.6945  45.1797  47.6791

          k = 0.0000-0.1000 0.3000 (   289 PWs)   bands (ev):

   -63.9022 -29.8125 -29.6745 -29.6157  15.0605  20.6527  20.8609  21.9989
    22.4198  23.8729  42.6179  45.6484

          k = 0.0000-0.2000 0.4000 (   281 PWs)   bands (ev):

   -63.8548 -30.0424 -29.7289 -29.6016  16.6935  20.2144  20.6663  22.5584
    23.1301  24.0967  38.5099  43.5806

          k = 0.0000-0.3000 0.5000 (   282 PWs)   bands (ev):

   -63.8163 -30.2241 -29.7936 -29.6112  17.5128  19.8696  21.1469  22.9106
    24.1683  24.8619  34.3058  42.2663

          k = 0.0000 0.6000-0.4000 (   284 PWs)   bands (ev):

   -63.8015 -30.2942 -29.8189 -29.6265  17.5888  19.7417  21.5953  22.9452
    24.6027  25.8943  32.0684  41.7584

          k =-0.1000-0.1000 0.4000 (   283 PWs)   bands (ev):

   -63.8606 -29.9701 -29.7308 -29.6413  16.5186  20.4483  20.6739  22.1306
    22.8360  24.1886  40.6740  42.0583

          k =-0.1000-0.2000 0.5000 (   287 PWs)   bands (ev):

   -63.8189 -30.1342 -29.8283 -29.6714  17.7895  19.9780  20.5672  22.4720
    23.7004  25.1420  36.7702  39.9438

          k =-0.1000 0.7000-0.4000 (   282 PWs)   bands (ev):

   -63.7930 -30.2318 -29.8686 -29.6734  18.1231  19.9908  20.6194  22.7490
    24.1907  27.1439  32.9540  39.1186

          k =-0.2000 0.2000 0.2000 (   288 PWs)   bands (ev):

   -63.8949 -29.9219 -29.6174 -29.6174  15.4697  20.1891  20.1891  22.9862
    23.3552  23.3552  42.3463  42.3463

          k =-0.2000 0.8000-0.4000 (   284 PWs)   bands (ev):

   -63.7897 -30.1708 -29.9435 -29.6874  18.7415  19.4744  20.4313  22.8035
    23.8245  27.5393  35.1654  35.9508

          k =-0.2000 0.7000-0.3000 (   284 PWs)   bands (ev):

   -63.7786 -30.1684 -30.0098 -29.6939  18.9491  19.8425  19.8661  23.1098
    23.8148  29.9514  32.3390  35.1851

          k =-0.3000 0.3000 0.2000 (   281 PWs)   bands (ev):

   -63.8539 -30.0810 -29.6944 -29.6135  17.1556  19.7169  19.9708  23.3198
    23.6092  24.4229  38.5516  40.7794

          k = 0.6000-0.6000 0.2000 (   281 PWs)   bands (ev):

   -63.8207 -30.2002 -29.7941 -29.6123  17.9250  19.4012  20.7368  23.4194
    23.7720  26.0819  34.4078  39.6771

          k = 0.6000-0.7000 0.3000 (   281 PWs)   bands (ev):

   -63.8240 -30.1527 -29.7747 -29.6639  18.4499  19.4891  19.7085  23.4663
    23.7495  26.3003  36.6977  37.5510

          k = 0.5000-0.5000 0.2000 (   282 PWs)   bands (ev):

   -63.8080 -30.2267 -29.8408 -29.6302  17.9463  19.2869  21.5151  23.4778
    23.8293  27.3818  32.0576  39.2007

          k = 0.5000-0.6000 0.3000 (   287 PWs)   bands (ev):

   -63.8055 -30.1585 -29.8951 -29.6893  18.6510  19.3370  20.3370  23.5852
    23.8215  28.5502  33.1391  36.3184

          k = 0.4000-0.6000 0.4000 (   291 PWs)   bands (ev):

   -63.7997 -30.0398 -30.0398 -29.7245  18.8644  19.7870  19.7870  23.7374
    23.7374  31.5039  31.5039  33.9313

          k = 0.0000 0.0000 0.4000 (   293 PWs)   bands (ev):

   -63.8669 -29.8790 -29.7347 -29.7347  16.2041  21.1564  21.1564  21.3462
    22.0517  24.2388  42.3880  44.6490

          k = 0.0000-0.1000 0.5000 (   286 PWs)   bands (ev):

   -63.8231 -30.0300 -29.7996 -29.7600  17.5579  20.2783  21.0607  21.8347
    22.9824  24.8146  39.4336  42.6459

          k = 0.0000-0.2000 0.6000 (   282 PWs)   bands (ev):

   -63.7874 -30.1762 -29.8574 -29.7577  18.2710  19.8686  20.8262  22.2967
    24.0466  26.4631  35.0243  41.3147

          k = 0.0000 0.7000-0.3000 (   284 PWs)   bands (ev):

   -63.7738 -30.2357 -29.8887 -29.7647  18.2901  19.9566  20.7288  22.3416
    24.5079  28.3656  32.1910  40.6506

          k =-0.1000-0.1000 0.6000 (   281 PWs)   bands (ev):

   -63.7853 -30.1076 -29.8956 -29.7898  18.4472  19.5131  21.2259  22.2481
    23.6199  26.3178  37.7746  38.3073

          k =-0.1000 0.8000-0.3000 (   280 PWs)   bands (ev):

   -63.7620 -30.1652 -29.9705 -29.7940  18.7050  19.2888  20.9497  22.7231
    24.1275  29.1045  33.6904  37.0818

          k =-0.2000 0.8000-0.2000 (   279 PWs)   bands (ev):

   -63.7522 -30.0983 -30.0983 -29.7833  18.9863  18.9863  20.7225  23.6322
    23.6322  32.3408  32.3408  34.0868

          k = 0.6000-0.6000 0.4000 (   282 PWs)   bands (ev):

   -63.8076 -30.1232 -29.7918 -29.7918  19.3312  19.3312  19.5208  23.7723
    23.7723  28.6136  35.5509  35.5509

          k = 0.5000-0.5000 0.4000 (   288 PWs)   bands (ev):

   -63.8014 -30.0461 -29.9289 -29.8083  19.2244  19.2857  19.9128  23.8018
    23.8633  31.0239  32.5778  35.1001

          k = 0.0000 0.0000 0.6000 (   277 PWs)   bands (ev):

   -63.7837 -30.0356 -29.8699 -29.8699  18.2801  19.5676  22.0020  22.0020
    23.0717  25.9263  40.4459  40.4459

          k = 0.0000-0.1000 0.7000 (   277 PWs)   bands (ev):

   -63.7517 -30.1081 -29.9454 -29.9063  18.5181  18.8859  22.1790  22.5330
    23.9096  28.1897  36.2750  38.5435

          k = 0.0000 0.8000-0.2000 (   276 PWs)   bands (ev):

   -63.7395 -30.1551 -29.9682 -29.9020  18.4308  18.7496  22.1526  22.6896
    24.3919  30.9648  32.7754  37.8552

          k =-0.1000 0.9000-0.2000 (   272 PWs)   bands (ev):

   -63.7309 -30.1122 -30.0416 -29.9008  18.4200  18.4207  22.2945  23.4600
    24.1156  31.1930  34.8313  35.3449

          k = 0.0000 0.0000 0.8000 (   269 PWs)   bands (ev):

   -63.7228 -30.0638 -30.0106 -30.0106  18.1728  18.2273  23.3943  23.3943
    23.9285  30.5720  36.5049  36.5049

          k = 0.0000 0.9000-0.1000 (   274 PWs)   bands (ev):

   -63.7117 -30.1033 -30.0395 -30.0253  17.9725  17.9911  23.5917  23.7592
    24.2987  33.2655  33.8375  35.6327

          k = 0.0000 0.0000-1.0000 (   266 PWs)   bands (ev):

   -63.7010 -30.0646 -30.0646 -30.0646  17.7384  17.7384  24.2635  24.2635
    24.2635  34.7421  34.7421  34.7421

     the Fermi energy is    22.1023 ev

!    total energy              =    -329.16252077 Ry
     Harris-Foulkes estimate   =    -329.16252073 Ry
     estimated scf accuracy    <          2.8E-09 Ry

     total all-electron energy =     -2545.459056 Ry

     The total energy is the sum of the following terms:

     one-electron contribution =     -95.82806272 Ry
     hartree contribution      =      60.56007978 Ry
     xc contribution           =     -34.93195623 Ry
     ewald contribution        =    -182.82524148 Ry
     one-center paw contrib.   =     -76.13742954 Ry
     smearing contrib. (-TS)   =       0.00008944 Ry

     total magnetization       =     1.93 Bohr mag/cell
     absolute magnetization    =     2.01 Bohr mag/cell

     convergence has been achieved in   8 iterations

     Writing output data file fe.save/
 
     init_run     :      0.45s CPU      0.51s WALL (       1 calls)
     electrons    :      5.20s CPU      5.76s WALL (       1 calls)

     Called by init_run:
     wfcinit      :      0.11s CPU      0.13s WALL (       1 calls)
     potinit      :      0.24s CPU      0.26s WALL (       1 calls)
     hinit0       :      0.08s CPU      0.10s WALL (       1 calls)

     Called by electrons:
     c_bands      :      2.99s CPU      3.29s WALL (       9 calls)
     sum_band     :      0.53s CPU      0.62s WALL (       9 calls)
     v_of_rho     :      0.07s CPU      0.07s WALL (       9 calls)
     newd         :      0.06s CPU      0.07s WALL (       9 calls)
     PAW_pot      :      1.76s CPU      1.93s WALL (       9 calls)
     mix_rho      :      0.01s CPU      0.01s WALL (       9 calls)

     Called by c_bands:
     init_us_2    :      0.06s CPU      0.07s WALL (    1786 calls)
     cegterg      :      2.80s CPU      3.08s WALL (     846 calls)

     Called by sum_band:
     sum_band:bec :      0.00s CPU      0.01s WALL (     846 calls)
     addusdens    :      0.11s CPU      0.12s WALL (       9 calls)

     Called by *egterg:
     h_psi        :      2.06s CPU      2.28s WALL (    2926 calls)
     s_psi        :      0.03s CPU      0.03s WALL (    2926 calls)
     g_psi        :      0.01s CPU      0.01s WALL (    1986 calls)
     cdiaghg      :      0.56s CPU      0.61s WALL (    2738 calls)

     Called by h_psi:
     h_psi:pot    :      2.05s CPU      2.26s WALL (    2926 calls)
     h_psi:calbec :      0.07s CPU      0.08s WALL (    2926 calls)
     vloc_psi     :      1.92s CPU      2.12s WALL (    2926 calls)
     add_vuspsi   :      0.04s CPU      0.04s WALL (    2926 calls)

     General routines
     calbec       :      0.09s CPU      0.10s WALL (    3772 calls)
     fft          :      0.03s CPU      0.05s WALL (     221 calls)
     ffts         :      0.00s CPU      0.00s WALL (      36 calls)
     fftw         :      2.04s CPU      2.28s WALL (   60878 calls)
     interpolate  :      0.00s CPU      0.00s WALL (      18 calls)
 
     Parallel routines
     fft_scatt_xy :      0.20s CPU      0.22s WALL (   61135 calls)
     fft_scatt_yz :      0.68s CPU      0.77s WALL (   61135 calls)
 
     PWSCF        :      6.75s CPU      7.50s WALL

 
   This run was terminated on:   1:21:56  24Jul2019            

=------------------------------------------------------------------------------=
   JOB DONE.
=------------------------------------------------------------------------------=
