
     Program PWSCF v.6.4.1 starts on 24Jul2019 at 13:56:15 

     This program is part of the open-source Quantum ESPRESSO suite
     for quantum simulation of materials; please cite
         "P. Giannozzi et al., J. Phys.:Condens. Matter 21 395502 (2009);
         "P. Giannozzi et al., J. Phys.:Condens. Matter 29 465901 (2017);
          URL http://www.quantum-espresso.org", 
     in publications or presentations arising from this work. More details at
     http://www.quantum-espresso.org/quote

     Parallel version (MPI), running on     4 processors

     MPI processes distributed on     1 nodes
     R & G space division:  proc/nbgrp/npool/nimage =       4
     Reading input from benzene.1_scf.in

     Current dimensions of program PWSCF are:
     Max number of different atomic species (ntypx) = 10
     Max number of k-points (npk) =  40000
     Max angular momentum in pseudopotentials (lmaxx) =  3

     Subspace diagonalization in iterative solution of the eigenvalue problem:
     a serial algorithm will be used

 
     Parallelization info
     --------------------
     sticks:   dense  smooth     PW     G-vecs:    dense   smooth      PW
     Min        4475    4475   1120               225286   225286   28164
     Max        4477    4477   1122               225287   225287   28165
     Sum       17905   17905   4485               901147   901147  112657
 


     bravais-lattice index     =            8
     lattice parameter (alat)  =      25.0000  a.u.
     unit-cell volume          =    7812.5000 (a.u.)^3
     number of atoms/cell      =           12
     number of atomic types    =            2
     number of electrons       =        30.00
     number of Kohn-Sham states=           15
     kinetic-energy cutoff     =      90.0000  Ry
     charge density cutoff     =     360.0000  Ry
     convergence threshold     =      1.0E-10
     mixing beta               =       0.7000
     number of iterations used =            8  plain     mixing
     Exchange-correlation      =  SLA  PW   PBX  PBC ( 1  4  3  4 0 0)

     celldm(1)=  25.000000  celldm(2)=   1.000000  celldm(3)=   0.500000
     celldm(4)=   0.000000  celldm(5)=   0.000000  celldm(6)=   0.000000

     crystal axes: (cart. coord. in units of alat)
               a(1) = (   1.000000   0.000000   0.000000 )  
               a(2) = (   0.000000   1.000000   0.000000 )  
               a(3) = (   0.000000   0.000000   0.500000 )  

     reciprocal axes: (cart. coord. in units 2 pi/alat)
               b(1) = (  1.000000  0.000000  0.000000 )  
               b(2) = (  0.000000  1.000000  0.000000 )  
               b(3) = (  0.000000  0.000000  2.000000 )  


     PseudoPot. # 1 for H  read from file:
     /home/bngjn/qe/qe-6.4.1/GIPAW/pseudo/H.pbe-tm-gipaw.UPF
     MD5 check sum: 39a9a69d8410949353303b9fcad9eee2
     Pseudo is Norm-conserving, Zval =  1.0
     Generated by new atomic code, or converted to UPF format
     Using radial grid of  929 points,  0 beta functions with: 

     PseudoPot. # 2 for C  read from file:
     /home/bngjn/qe/qe-6.4.1/GIPAW/pseudo/C.pbe-tm-gipaw.UPF
     MD5 check sum: 6e4a9b9bc4429ee737bc22471ffa2923
     Pseudo is Norm-conserving, Zval =  4.0
     Generated by new atomic code, or converted to UPF format
     Using radial grid of 1073 points,  1 beta functions with: 
                l(1) =   0

     atomic species   valence    mass     pseudopotential
        H              1.00     1.00000     H ( 1.00)
        C              4.00    12.00000     C ( 1.00)

      8 Sym. Ops., with inversion, found



   Cartesian axes

     site n.     atom                  positions (alat units)
         1           C   tau(   1) = (   0.0000000   0.1052095   0.0000000  )
         2           C   tau(   2) = (   0.0911141   0.0526048   0.0000000  )
         3           C   tau(   3) = (   0.0911141  -0.0526048   0.0000000  )
         4           C   tau(   4) = (   0.0000000  -0.1052095   0.0000000  )
         5           C   tau(   5) = (  -0.0911141  -0.0526048   0.0000000  )
         6           C   tau(   6) = (  -0.0911141   0.0526048   0.0000000  )
         7           H   tau(   7) = (   0.0000000   0.1871300   0.0000000  )
         8           H   tau(   8) = (   0.1620593   0.0935650   0.0000000  )
         9           H   tau(   9) = (   0.1620593  -0.0935650   0.0000000  )
        10           H   tau(  10) = (   0.0000000  -0.1871300   0.0000000  )
        11           H   tau(  11) = (  -0.1620593  -0.0935650   0.0000000  )
        12           H   tau(  12) = (  -0.1620593   0.0935650   0.0000000  )

     number of k points=     1
                       cart. coord. in units 2pi/alat
        k(    1) = (   0.0000000   0.0000000   0.0000000), wk =   2.0000000

     Dense  grid:   901147 G-vectors     FFT dimensions: ( 160, 160,  75)

     Estimated max dynamical RAM per process >     194.82 MB

     Estimated total dynamical RAM >     779.26 MB

     Initial potential from superposition of free atoms

     starting charge   24.59975, renormalised to   30.00000

     negative rho (up, down):  2.639E-06 0.000E+00
     Starting wfcs are   30 randomized atomic wfcs

     total cpu time spent up to now is        4.1 secs

     Self-consistent Calculation

     iteration #  1     ecut=    90.00 Ry     beta= 0.70
     Davidson diagonalization with overlap
     ethr =  1.00E-04,  avg # of iterations =  6.0

     total cpu time spent up to now is       11.6 secs

     total energy              =     -68.90025654 Ry
     Harris-Foulkes estimate   =     -79.02505463 Ry
     estimated scf accuracy    <      13.35671547 Ry

     iteration #  2     ecut=    90.00 Ry     beta= 0.70
     Davidson diagonalization with overlap
     ethr =  1.00E-02,  avg # of iterations =  3.0

     total cpu time spent up to now is       17.4 secs

     total energy              =     -74.22464209 Ry
     Harris-Foulkes estimate   =     -78.76996856 Ry
     estimated scf accuracy    <       8.26102659 Ry

     iteration #  3     ecut=    90.00 Ry     beta= 0.70
     Davidson diagonalization with overlap
     ethr =  1.00E-02,  avg # of iterations =  2.0

     total cpu time spent up to now is       21.9 secs

     total energy              =     -75.30508820 Ry
     Harris-Foulkes estimate   =     -75.45191286 Ry
     estimated scf accuracy    <       0.23351955 Ry

     iteration #  4     ecut=    90.00 Ry     beta= 0.70
     Davidson diagonalization with overlap
     ethr =  7.78E-04,  avg # of iterations =  2.0

     total cpu time spent up to now is       26.5 secs

     total energy              =     -75.36554185 Ry
     Harris-Foulkes estimate   =     -75.37733778 Ry
     estimated scf accuracy    <       0.02026202 Ry

     iteration #  5     ecut=    90.00 Ry     beta= 0.70
     Davidson diagonalization with overlap
     ethr =  6.75E-05,  avg # of iterations =  2.0

     total cpu time spent up to now is       31.1 secs

     total energy              =     -75.37184444 Ry
     Harris-Foulkes estimate   =     -75.37286831 Ry
     estimated scf accuracy    <       0.00237694 Ry

     iteration #  6     ecut=    90.00 Ry     beta= 0.70
     Davidson diagonalization with overlap
     ethr =  7.92E-06,  avg # of iterations =  2.0

     total cpu time spent up to now is       35.5 secs

     total energy              =     -75.37204785 Ry
     Harris-Foulkes estimate   =     -75.37214789 Ry
     estimated scf accuracy    <       0.00017298 Ry

     iteration #  7     ecut=    90.00 Ry     beta= 0.70
     Davidson diagonalization with overlap
     ethr =  5.77E-07,  avg # of iterations =  2.0

     total cpu time spent up to now is       40.1 secs

     total energy              =     -75.37210308 Ry
     Harris-Foulkes estimate   =     -75.37210820 Ry
     estimated scf accuracy    <       0.00001026 Ry

     iteration #  8     ecut=    90.00 Ry     beta= 0.70
     Davidson diagonalization with overlap
     ethr =  3.42E-08,  avg # of iterations =  2.0

     total cpu time spent up to now is       44.9 secs

     total energy              =     -75.37210555 Ry
     Harris-Foulkes estimate   =     -75.37210552 Ry
     estimated scf accuracy    <       0.00000010 Ry

     iteration #  9     ecut=    90.00 Ry     beta= 0.70
     Davidson diagonalization with overlap
     ethr =  3.44E-10,  avg # of iterations =  2.0

     total cpu time spent up to now is       49.6 secs

     total energy              =     -75.37210557 Ry
     Harris-Foulkes estimate   =     -75.37210557 Ry
     estimated scf accuracy    <       0.00000001 Ry

     iteration # 10     ecut=    90.00 Ry     beta= 0.70
     Davidson diagonalization with overlap
     ethr =  4.42E-11,  avg # of iterations =  2.0

     total cpu time spent up to now is       54.3 secs

     total energy              =     -75.37210557 Ry
     Harris-Foulkes estimate   =     -75.37210557 Ry
     estimated scf accuracy    <          6.3E-10 Ry

     iteration # 11     ecut=    90.00 Ry     beta= 0.70
     Davidson diagonalization with overlap
     ethr =  2.11E-12,  avg # of iterations =  2.0

     total cpu time spent up to now is       58.8 secs

     End of self-consistent calculation

          k = 0.0000 0.0000 0.0000 (112657 PWs)   bands (ev):

   -20.4330 -17.6335 -17.6334 -14.0634 -14.0633 -12.2238 -10.4559 -10.2235
    -9.5411  -9.5411  -8.3797  -7.5446  -7.5445  -5.6385  -5.6385

     highest occupied level (ev):    -5.6385

!    total energy              =     -75.37210557 Ry
     Harris-Foulkes estimate   =     -75.37210557 Ry
     estimated scf accuracy    <          8.4E-11 Ry

     The total energy is the sum of the following terms:

     one-electron contribution =    -305.07734501 Ry
     hartree contribution      =     156.36104788 Ry
     xc contribution           =     -25.19698329 Ry
     ewald contribution        =      98.54117485 Ry

     convergence has been achieved in  11 iterations

     Forces acting on atoms (cartesian axes, Ry/au):

     atom    1 type  2   force =     0.00000000    0.01031763    0.00000000
     atom    2 type  2   force =     0.00886653    0.00515818    0.00000000
     atom    3 type  2   force =     0.00886653   -0.00515818    0.00000000
     atom    4 type  2   force =     0.00000000   -0.01031763    0.00000000
     atom    5 type  2   force =    -0.00886653   -0.00515818    0.00000000
     atom    6 type  2   force =    -0.00886653    0.00515818    0.00000000
     atom    7 type  1   force =     0.00000000    0.01100549    0.00000000
     atom    8 type  1   force =     0.00952517    0.00549856    0.00000000
     atom    9 type  1   force =     0.00952517   -0.00549856    0.00000000
     atom   10 type  1   force =     0.00000000   -0.01100549    0.00000000
     atom   11 type  1   force =    -0.00952517   -0.00549856    0.00000000
     atom   12 type  1   force =    -0.00952517    0.00549856    0.00000000

     Total force =     0.036877     Total SCF correction =     0.000015

     Writing output data file benzene.save/
 
     init_run     :      3.76s CPU      4.07s WALL (       1 calls)
     electrons    :     52.46s CPU     54.80s WALL (       1 calls)
     forces       :      0.52s CPU      0.53s WALL (       1 calls)

     Called by init_run:
     wfcinit      :      1.90s CPU      1.96s WALL (       1 calls)
     potinit      :      0.85s CPU      0.95s WALL (       1 calls)
     hinit0       :      0.24s CPU      0.27s WALL (       1 calls)

     Called by electrons:
     c_bands      :     33.22s CPU     34.68s WALL (      11 calls)
     sum_band     :      8.05s CPU      8.54s WALL (      11 calls)
     v_of_rho     :      8.77s CPU      9.10s WALL (      12 calls)
     mix_rho      :      2.84s CPU      2.95s WALL (      11 calls)

     Called by c_bands:
     init_us_2    :      0.08s CPU      0.08s WALL (      23 calls)
     cegterg      :     33.14s CPU     34.59s WALL (      11 calls)

     Called by sum_band:

     Called by *egterg:
     h_psi        :     33.36s CPU     34.83s WALL (      39 calls)
     g_psi        :      0.09s CPU      0.09s WALL (      27 calls)
     cdiaghg      :      0.02s CPU      0.02s WALL (      38 calls)

     Called by h_psi:
     h_psi:pot    :     33.15s CPU     34.60s WALL (      39 calls)
     h_psi:calbec :      0.12s CPU      0.13s WALL (      39 calls)
     vloc_psi     :     32.83s CPU     34.25s WALL (      39 calls)
     add_vuspsi   :      0.19s CPU      0.22s WALL (      39 calls)

     General routines
     calbec       :      0.14s CPU      0.14s WALL (      43 calls)
     fft          :      7.09s CPU      7.38s WALL (     121 calls)
     ffts         :      0.57s CPU      0.63s WALL (      11 calls)
     fftw         :     31.54s CPU     32.99s WALL (    1259 calls)
 
     Parallel routines
     fft_scatt_xy :      6.86s CPU      7.25s WALL (    1391 calls)
     fft_scatt_yz :     13.33s CPU     13.99s WALL (    1391 calls)
 
     PWSCF        :     56.83s CPU     59.55s WALL

 
   This run was terminated on:  13:57:14  24Jul2019            

=------------------------------------------------------------------------------=
   JOB DONE.
=------------------------------------------------------------------------------=
