
     Program PWSCF v.6.4.1 starts on 24Jul2019 at 16:42:50 

     This program is part of the open-source Quantum ESPRESSO suite
     for quantum simulation of materials; please cite
         "P. Giannozzi et al., J. Phys.:Condens. Matter 21 395502 (2009);
         "P. Giannozzi et al., J. Phys.:Condens. Matter 29 465901 (2017);
          URL http://www.quantum-espresso.org", 
     in publications or presentations arising from this work. More details at
     http://www.quantum-espresso.org/quote

     Parallel version (MPI), running on     4 processors

     MPI processes distributed on     1 nodes
     R & G space division:  proc/nbgrp/npool/nimage =       4
     Reading input from nio.1_scf.in

     Current dimensions of program PWSCF are:
     Max number of different atomic species (ntypx) = 10
     Max number of k-points (npk) =  40000
     Max angular momentum in pseudopotentials (lmaxx) =  3
               file O.pbe-n-kjpaw_psl.0.1.UPF: wavefunction(s)  2P renormalized

     Subspace diagonalization in iterative solution of the eigenvalue problem:
     a serial algorithm will be used

 
     Parallelization info
     --------------------
     sticks:   dense  smooth     PW     G-vecs:    dense   smooth      PW
     Min         513     206     66                11637     2965     533
     Max         514     207     67                11639     2966     535
     Sum        2055     825    265                46553    11861    2135
 


     bravais-lattice index     =            5
     lattice parameter (alat)  =       9.6715  a.u.
     unit-cell volume          =     246.2189 (a.u.)^3
     number of atoms/cell      =            4
     number of atomic types    =            3
     number of electrons       =        48.00 (up:  24.00, down:  24.00)
     number of Kohn-Sham states=           36
     kinetic-energy cutoff     =      50.0000  Ry
     charge density cutoff     =     500.0000  Ry
     convergence threshold     =      1.0E-09
     mixing beta               =       0.3000
     number of iterations used =            8  plain     mixing
     Exchange-correlation      = SLA PW PBX PBC ( 1  4  3  4 0 0)

     celldm(1)=   9.671550  celldm(2)=   0.000000  celldm(3)=   0.000000
     celldm(4)=   0.833333  celldm(5)=   0.000000  celldm(6)=   0.000000

     crystal axes: (cart. coord. in units of alat)
               a(1) = (   0.288675  -0.166667   0.942809 )  
               a(2) = (   0.000000   0.333333   0.942809 )  
               a(3) = (  -0.288675  -0.166667   0.942809 )  

     reciprocal axes: (cart. coord. in units 2 pi/alat)
               b(1) = (  1.732051 -1.000000  0.353553 )  
               b(2) = (  0.000000  2.000000  0.353553 )  
               b(3) = ( -1.732051 -1.000000  0.353553 )  


     PseudoPot. # 1 for Ni read from file:
     /home/bngjn/qe/SSSP_precision_pseudos/ni_pbe_v1.4.uspp.F.UPF
     MD5 check sum: 1ee80287db30b12d2bc1f57a5b5d6409
     Pseudo is Ultrasoft + core correction, Zval = 18.0
     Generated by new atomic code, or converted to UPF format
     Using radial grid of  865 points,  6 beta functions with: 
                l(1) =   0
                l(2) =   0
                l(3) =   1
                l(4) =   1
                l(5) =   2
                l(6) =   2
     Q(r) pseudized with 10 coefficients,  rinner =    0.980   0.980   0.980
                                                       0.980   0.980

     PseudoPot. # 2 for Ni read from file:
     /home/bngjn/qe/SSSP_precision_pseudos/ni_pbe_v1.4.uspp.F.UPF
     MD5 check sum: 1ee80287db30b12d2bc1f57a5b5d6409
     Pseudo is Ultrasoft + core correction, Zval = 18.0
     Generated by new atomic code, or converted to UPF format
     Using radial grid of  865 points,  6 beta functions with: 
                l(1) =   0
                l(2) =   0
                l(3) =   1
                l(4) =   1
                l(5) =   2
                l(6) =   2
     Q(r) pseudized with 10 coefficients,  rinner =    0.980   0.980   0.980
                                                       0.980   0.980

     PseudoPot. # 3 for O  read from file:
     /home/bngjn/qe/SSSP_precision_pseudos/O.pbe-n-kjpaw_psl.0.1.UPF
     MD5 check sum: 0234752ac141de4415c5fc33072bef88
     Pseudo is Projector augmented-wave + core cor, Zval =  6.0
     Generated using "atomic" code by A. Dal Corso v.5.0.99 svn rev. 10869
     Shape of augmentation charge: BESSEL
     Using radial grid of 1095 points,  4 beta functions with: 
                l(1) =   0
                l(2) =   0
                l(3) =   1
                l(4) =   1
     Q(r) pseudized with 0 coefficients 


     atomic species   valence    mass     pseudopotential
        Ni1           18.00    58.69340     Ni( 1.00)
        Ni2           18.00    58.69340     Ni( 1.00)
        O              6.00    15.99900     O ( 1.00)

     Starting magnetic structure 
     atomic species   magnetization
        Ni1          0.200
        Ni2         -0.200
        O            0.000


     Simplified LDA+U calculation (l_max = 2) with parameters (eV):
     atomic species    L          U    alpha       J0     beta
        Ni1            2     7.6000   0.0000   0.0000   0.0000
        Ni2            2     7.6000   0.0000   0.0000   0.0000



     12 Sym. Ops., with inversion, found



   Cartesian axes

     site n.     atom                  positions (alat units)
         1           Ni1 tau(   1) = (   0.0000000   0.0000000   0.0000000  )
         2           Ni2 tau(   2) = (   0.0000000   0.6666667   0.4714045  )
         3           O   tau(   3) = (   0.2886751  -0.1666667   0.2357023  )
         4           O   tau(   4) = (  -0.2886751   0.1666667  -0.2357023  )

     number of k points=    13
                       cart. coord. in units 2pi/alat
        k(    1) = (   0.0000000   0.0000000   0.0000000), wk =   0.0156250
        k(    2) = (  -0.4330127  -0.2500000   0.0883883), wk =   0.0937500
        k(    3) = (   0.8660254   0.5000000  -0.1767767), wk =   0.0468750
        k(    4) = (  -0.4330127   0.2500000   0.1767767), wk =   0.0937500
        k(    5) = (   0.8660254   1.0000000  -0.0883883), wk =   0.1875000
        k(    6) = (   0.4330127   0.7500000   0.0000000), wk =   0.0937500
        k(    7) = (   0.8660254  -0.5000000  -0.3535534), wk =   0.0468750
        k(    8) = (   0.0000000   0.0000000   0.2651650), wk =   0.0312500
        k(    9) = (   1.2990381   0.7500000   0.0000000), wk =   0.0937500
        k(   10) = (   0.8660254   0.5000000   0.0883883), wk =   0.0937500
        k(   11) = (   1.2990381  -0.7500000  -0.2651650), wk =   0.0937500
        k(   12) = (   0.8660254  -1.0000000  -0.1767767), wk =   0.0937500
        k(   13) = (   0.0000000   0.0000000  -0.5303301), wk =   0.0156250

     Dense  grid:    46553 G-vectors     FFT dimensions: (  72,  72,  72)

     Smooth grid:    11861 G-vectors     FFT dimensions: (  45,  45,  45)

     Estimated max dynamical RAM per process >      69.55 MB

     Estimated total dynamical RAM >     278.18 MB
     Generating pointlists ...
     new r_m :   0.1684 (alat units)  1.6287 (a.u.) for type    1
     new r_m :   0.1684 (alat units)  1.6287 (a.u.) for type    2
     new r_m :   0.1684 (alat units)  1.6287 (a.u.) for type    3

     Check: negative core charge=   -0.000006

     Initial potential from superposition of free atoms

     starting charge   44.00000, renormalised to   48.00000
     Number of +U iterations with fixed ns =  0
     Starting occupations:
 --- enter write_ns ---
 LDA+U parameters:
U( 1)     =  7.60000000
alpha( 1) =  0.00000000
U( 2)     =  7.60000000
alpha( 2) =  0.00000000
atom    1   Tr[ns(na)] (up, down, total) =   5.00000  3.00000  8.00000
   spin  1
    eigenvalues: 
  1.000  1.000  1.000  1.000  1.000
    eigenvectors:
  1.000  0.000  0.000  0.000  0.000
  0.000  1.000  0.000  0.000  0.000
  0.000  0.000  1.000  0.000  0.000
  0.000  0.000  0.000  1.000  0.000
  0.000  0.000  0.000  0.000  1.000
    occupations:
  1.000  0.000  0.000  0.000  0.000
  0.000  1.000  0.000  0.000  0.000
  0.000  0.000  1.000  0.000  0.000
  0.000  0.000  0.000  1.000  0.000
  0.000  0.000  0.000  0.000  1.000
   spin  2
    eigenvalues: 
  0.600  0.600  0.600  0.600  0.600
    eigenvectors:
  1.000  0.000  0.000  0.000  0.000
  0.000  1.000  0.000  0.000  0.000
  0.000  0.000  1.000  0.000  0.000
  0.000  0.000  0.000  1.000  0.000
  0.000  0.000  0.000  0.000  1.000
    occupations:
  0.600  0.000  0.000  0.000  0.000
  0.000  0.600  0.000  0.000  0.000
  0.000  0.000  0.600  0.000  0.000
  0.000  0.000  0.000  0.600  0.000
  0.000  0.000  0.000  0.000  0.600
atomic mag. moment =     2.000000
atom    2   Tr[ns(na)] (up, down, total) =   3.00000  5.00000  8.00000
   spin  1
    eigenvalues: 
  0.600  0.600  0.600  0.600  0.600
    eigenvectors:
  1.000  0.000  0.000  0.000  0.000
  0.000  1.000  0.000  0.000  0.000
  0.000  0.000  1.000  0.000  0.000
  0.000  0.000  0.000  1.000  0.000
  0.000  0.000  0.000  0.000  1.000
    occupations:
  0.600  0.000  0.000  0.000  0.000
  0.000  0.600  0.000  0.000  0.000
  0.000  0.000  0.600  0.000  0.000
  0.000  0.000  0.000  0.600  0.000
  0.000  0.000  0.000  0.000  0.600
   spin  2
    eigenvalues: 
  1.000  1.000  1.000  1.000  1.000
    eigenvectors:
  1.000  0.000  0.000  0.000  0.000
  0.000  1.000  0.000  0.000  0.000
  0.000  0.000  1.000  0.000  0.000
  0.000  0.000  0.000  1.000  0.000
  0.000  0.000  0.000  0.000  1.000
    occupations:
  1.000  0.000  0.000  0.000  0.000
  0.000  1.000  0.000  0.000  0.000
  0.000  0.000  1.000  0.000  0.000
  0.000  0.000  0.000  1.000  0.000
  0.000  0.000  0.000  0.000  1.000
atomic mag. moment =    -2.000000
N of occupied +U levels =   16.000000
 --- exit write_ns ---
 Atomic wfc used for LDA+U Projector are NOT orthogonalized
     Starting wfcs are   34 randomized atomic wfcs +    2 random wfcs
     Checking if some PAW data can be deallocated... 

     total cpu time spent up to now is        3.2 secs

     Self-consistent Calculation

     iteration #  1     ecut=    50.00 Ry     beta= 0.30
     Davidson diagonalization with overlap
     ethr =  1.00E-02,  avg # of iterations =  4.0
 --- enter write_ns ---
 LDA+U parameters:
U( 1)     =  7.60000000
alpha( 1) =  0.00000000
U( 2)     =  7.60000000
alpha( 2) =  0.00000000
atom    1   Tr[ns(na)] (up, down, total) =   3.86476  0.83922  4.70398
   spin  1
    eigenvalues: 
  0.722  0.722  0.761  0.830  0.830
    eigenvectors:
  0.000  0.000  1.000  0.000  0.000
  0.014  0.462  0.000  0.251  0.273
  0.462  0.014  0.000  0.273  0.251
  0.509  0.015  0.000  0.248  0.228
  0.015  0.509  0.000  0.228  0.248
    occupations:
  0.761  0.000  0.000  0.000  0.000
  0.000  0.778  0.000 -0.000  0.054
  0.000  0.000  0.778  0.054 -0.000
  0.000 -0.000  0.054  0.773 -0.000
  0.000  0.054 -0.000 -0.000  0.773
   spin  2
    eigenvalues: 
  0.086  0.086  0.206  0.206  0.254
    eigenvectors:
  0.000  0.000  0.000  0.000  1.000
  0.554  0.143  0.003  0.300  0.000
  0.143  0.554  0.300  0.003  0.000
  0.062  0.240  0.692  0.006  0.000
  0.240  0.062  0.006  0.692  0.000
    occupations:
  0.254  0.000 -0.000  0.000  0.000
  0.000  0.123  0.000 -0.000 -0.055
 -0.000  0.000  0.123 -0.055  0.000
  0.000 -0.000 -0.055  0.170 -0.000
  0.000 -0.055  0.000 -0.000  0.170
atomic mag. moment =     3.025544
atom    2   Tr[ns(na)] (up, down, total) =   0.83920  3.86478  4.70398
   spin  1
    eigenvalues: 
  0.086  0.086  0.206  0.206  0.254
    eigenvectors:
  0.000  0.000  0.000  0.000  1.000
  0.554  0.144  0.003  0.300  0.000
  0.144  0.554  0.300  0.003  0.000
  0.062  0.240  0.692  0.006  0.000
  0.240  0.062  0.006  0.692  0.000
    occupations:
  0.254  0.000 -0.000  0.000  0.000
  0.000  0.123  0.000 -0.000 -0.055
 -0.000  0.000  0.123 -0.055  0.000
  0.000 -0.000 -0.055  0.170 -0.000
  0.000 -0.055  0.000 -0.000  0.170
   spin  2
    eigenvalues: 
  0.722  0.722  0.761  0.830  0.830
    eigenvectors:
  0.000  0.000  1.000  0.000  0.000
  0.014  0.462  0.000  0.251  0.273
  0.462  0.014  0.000  0.273  0.251
  0.509  0.015  0.000  0.248  0.228
  0.015  0.509  0.000  0.228  0.248
    occupations:
  0.761  0.000  0.000  0.000  0.000
  0.000  0.778  0.000 -0.000  0.054
  0.000  0.000  0.778  0.054 -0.000
  0.000 -0.000  0.054  0.773 -0.000
  0.000  0.054 -0.000 -0.000  0.773
atomic mag. moment =    -3.025576
N of occupied +U levels =    9.407959
 --- exit write_ns ---

     total cpu time spent up to now is        8.9 secs

     total energy              =    -756.03840998 Ry
     Harris-Foulkes estimate   =    -778.54945256 Ry
     estimated scf accuracy    <      49.73518627 Ry

     total magnetization       =    -0.00 Bohr mag/cell
     absolute magnetization    =     6.69 Bohr mag/cell

     iteration #  2     ecut=    50.00 Ry     beta= 0.30
     Davidson diagonalization with overlap
     ethr =  1.00E-02,  avg # of iterations =  3.0

     total cpu time spent up to now is       14.5 secs

     total energy              =    -766.20712468 Ry
     Harris-Foulkes estimate   =    -770.61395833 Ry
     estimated scf accuracy    <      19.04312391 Ry

     total magnetization       =     0.00 Bohr mag/cell
     absolute magnetization    =     0.51 Bohr mag/cell

     iteration #  3     ecut=    50.00 Ry     beta= 0.30
     Davidson diagonalization with overlap
     ethr =  1.00E-02,  avg # of iterations =  2.0

     total cpu time spent up to now is       18.7 secs

     total energy              =    -769.06601998 Ry
     Harris-Foulkes estimate   =    -768.73506987 Ry
     estimated scf accuracy    <       1.04398067 Ry

     total magnetization       =    -0.00 Bohr mag/cell
     absolute magnetization    =     3.91 Bohr mag/cell

     iteration #  4     ecut=    50.00 Ry     beta= 0.30
     Davidson diagonalization with overlap
     ethr =  2.17E-03,  avg # of iterations =  1.0

     total cpu time spent up to now is       22.6 secs

     total energy              =    -769.52222440 Ry
     Harris-Foulkes estimate   =    -769.09382779 Ry
     estimated scf accuracy    <       0.48827122 Ry

     total magnetization       =    -0.00 Bohr mag/cell
     absolute magnetization    =     3.72 Bohr mag/cell

     iteration #  5     ecut=    50.00 Ry     beta= 0.30
     Davidson diagonalization with overlap
     ethr =  1.02E-03,  avg # of iterations =  1.0

     total cpu time spent up to now is       26.5 secs

     total energy              =    -769.53617562 Ry
     Harris-Foulkes estimate   =    -769.53974411 Ry
     estimated scf accuracy    <       0.02008216 Ry

     total magnetization       =     0.00 Bohr mag/cell
     absolute magnetization    =     3.61 Bohr mag/cell

     iteration #  6     ecut=    50.00 Ry     beta= 0.30
     Davidson diagonalization with overlap
     ethr =  4.18E-05,  avg # of iterations =  1.8

     total cpu time spent up to now is       30.3 secs

     total energy              =    -769.53762045 Ry
     Harris-Foulkes estimate   =    -769.53811112 Ry
     estimated scf accuracy    <       0.00150806 Ry

     total magnetization       =     0.00 Bohr mag/cell
     absolute magnetization    =     3.65 Bohr mag/cell

     iteration #  7     ecut=    50.00 Ry     beta= 0.30
     Davidson diagonalization with overlap
     ethr =  3.14E-06,  avg # of iterations =  2.2

     total cpu time spent up to now is       34.7 secs

     total energy              =    -769.53808324 Ry
     Harris-Foulkes estimate   =    -769.53833818 Ry
     estimated scf accuracy    <       0.00087225 Ry

     total magnetization       =     0.00 Bohr mag/cell
     absolute magnetization    =     3.67 Bohr mag/cell

     iteration #  8     ecut=    50.00 Ry     beta= 0.30
     Davidson diagonalization with overlap
     ethr =  1.82E-06,  avg # of iterations =  2.0

     total cpu time spent up to now is       38.6 secs

     total energy              =    -769.53820451 Ry
     Harris-Foulkes estimate   =    -769.53819135 Ry
     estimated scf accuracy    <       0.00004082 Ry

     total magnetization       =    -0.00 Bohr mag/cell
     absolute magnetization    =     3.66 Bohr mag/cell

     iteration #  9     ecut=    50.00 Ry     beta= 0.30
     Davidson diagonalization with overlap
     ethr =  8.50E-08,  avg # of iterations =  2.0

     total cpu time spent up to now is       43.0 secs

     total energy              =    -769.53822785 Ry
     Harris-Foulkes estimate   =    -769.53822737 Ry
     estimated scf accuracy    <       0.00004699 Ry

     total magnetization       =    -0.00 Bohr mag/cell
     absolute magnetization    =     3.66 Bohr mag/cell

     iteration # 10     ecut=    50.00 Ry     beta= 0.30
     Davidson diagonalization with overlap
     ethr =  8.50E-08,  avg # of iterations =  2.0

     total cpu time spent up to now is       47.0 secs

     total energy              =    -769.53822413 Ry
     Harris-Foulkes estimate   =    -769.53823463 Ry
     estimated scf accuracy    <       0.00000798 Ry

     total magnetization       =    -0.00 Bohr mag/cell
     absolute magnetization    =     3.66 Bohr mag/cell

     iteration # 11     ecut=    50.00 Ry     beta= 0.30
     Davidson diagonalization with overlap
     ethr =  1.66E-08,  avg # of iterations =  2.0

     total cpu time spent up to now is       51.5 secs

     total energy              =    -769.53824755 Ry
     Harris-Foulkes estimate   =    -769.53824691 Ry
     estimated scf accuracy    <       0.00000891 Ry

     total magnetization       =     0.00 Bohr mag/cell
     absolute magnetization    =     3.67 Bohr mag/cell

     iteration # 12     ecut=    50.00 Ry     beta= 0.30
     Davidson diagonalization with overlap
     ethr =  1.66E-08,  avg # of iterations =  2.0

     total cpu time spent up to now is       56.0 secs

     total energy              =    -769.53825190 Ry
     Harris-Foulkes estimate   =    -769.53825224 Ry
     estimated scf accuracy    <       0.00000354 Ry

     total magnetization       =     0.00 Bohr mag/cell
     absolute magnetization    =     3.67 Bohr mag/cell

     iteration # 13     ecut=    50.00 Ry     beta= 0.30
     Davidson diagonalization with overlap
     ethr =  7.37E-09,  avg # of iterations =  1.0

     total cpu time spent up to now is       59.9 secs

     total energy              =    -769.53825233 Ry
     Harris-Foulkes estimate   =    -769.53825224 Ry
     estimated scf accuracy    <       0.00000086 Ry

     total magnetization       =    -0.00 Bohr mag/cell
     absolute magnetization    =     3.67 Bohr mag/cell

     iteration # 14     ecut=    50.00 Ry     beta= 0.30
     Davidson diagonalization with overlap
     ethr =  1.80E-09,  avg # of iterations =  2.0

     total cpu time spent up to now is       64.2 secs

     total energy              =    -769.53825260 Ry
     Harris-Foulkes estimate   =    -769.53825253 Ry
     estimated scf accuracy    <       0.00000004 Ry

     total magnetization       =     0.00 Bohr mag/cell
     absolute magnetization    =     3.67 Bohr mag/cell

     iteration # 15     ecut=    50.00 Ry     beta= 0.30
     Davidson diagonalization with overlap
     ethr =  7.51E-11,  avg # of iterations =  2.0

     total cpu time spent up to now is       68.6 secs

     total energy              =    -769.53825265 Ry
     Harris-Foulkes estimate   =    -769.53825261 Ry
     estimated scf accuracy    <          2.4E-09 Ry

     total magnetization       =    -0.00 Bohr mag/cell
     absolute magnetization    =     3.67 Bohr mag/cell

     iteration # 16     ecut=    50.00 Ry     beta= 0.30
     Davidson diagonalization with overlap
     ethr =  4.99E-12,  avg # of iterations =  2.0
 
     Magnetic moment per site:
     atom:    1    charge:   15.6116    magn:    1.7037    constr:    0.0000
     atom:    2    charge:   15.6116    magn:   -1.7037    constr:    0.0000
     atom:    3    charge:    5.7443    magn:   -0.0000    constr:    0.0000
     atom:    4    charge:    5.7443    magn:   -0.0000    constr:    0.0000

     total cpu time spent up to now is       73.0 secs

     End of self-consistent calculation
 --- enter write_ns ---
 LDA+U parameters:
U( 1)     =  7.60000000
alpha( 1) =  0.00000000
U( 2)     =  7.60000000
alpha( 2) =  0.00000000
atom    1   Tr[ns(na)] (up, down, total) =   4.98799  3.33554  8.32353
   spin  1
    eigenvalues: 
  0.997  0.997  0.997  0.998  0.998
    eigenvectors:
  1.000  0.000  0.000  0.000  0.000
  0.000  0.018  0.314  0.500  0.168
  0.000  0.314  0.018  0.168  0.500
  0.000  0.632  0.036  0.084  0.248
  0.000  0.036  0.632  0.248  0.084
    occupations:
  0.997  0.000  0.000  0.000  0.000
  0.000  0.998  0.000 -0.000  0.000
  0.000  0.000  0.998  0.000 -0.000
  0.000 -0.000  0.000  0.998 -0.000
  0.000  0.000 -0.000 -0.000  0.998
   spin  2
    eigenvalues: 
  0.176  0.176  0.994  0.994  0.994
    eigenvectors:
  0.000  0.000  1.000  0.000  0.000
  0.499  0.167  0.000  0.018  0.315
  0.167  0.499  0.000  0.315  0.018
  0.084  0.250  0.000  0.630  0.036
  0.250  0.084  0.000  0.036  0.630
    occupations:
  0.994 -0.000 -0.000  0.000  0.000
 -0.000  0.449  0.000 -0.000 -0.386
 -0.000  0.000  0.449 -0.386  0.000
  0.000 -0.000 -0.386  0.721 -0.000
  0.000 -0.386  0.000 -0.000  0.721
atomic mag. moment =     1.652451
atom    2   Tr[ns(na)] (up, down, total) =   3.33554  4.98799  8.32353
   spin  1
    eigenvalues: 
  0.176  0.176  0.994  0.994  0.994
    eigenvectors:
  0.000  0.000  1.000  0.000  0.000
  0.499  0.167  0.000  0.018  0.315
  0.167  0.499  0.000  0.315  0.018
  0.084  0.250  0.000  0.630  0.036
  0.250  0.084  0.000  0.036  0.630
    occupations:
  0.994 -0.000 -0.000  0.000  0.000
 -0.000  0.449  0.000 -0.000 -0.386
 -0.000  0.000  0.449 -0.386  0.000
  0.000 -0.000 -0.386  0.721 -0.000
  0.000 -0.386  0.000 -0.000  0.721
   spin  2
    eigenvalues: 
  0.997  0.997  0.997  0.998  0.998
    eigenvectors:
  1.000  0.000  0.000  0.000  0.000
  0.000  0.018  0.314  0.500  0.168
  0.000  0.314  0.018  0.168  0.500
  0.000  0.632  0.036  0.084  0.248
  0.000  0.036  0.632  0.248  0.084
    occupations:
  0.997  0.000  0.000  0.000  0.000
  0.000  0.998  0.000 -0.000  0.000
  0.000  0.000  0.998  0.000 -0.000
  0.000 -0.000  0.000  0.998 -0.000
  0.000  0.000 -0.000 -0.000  0.998
atomic mag. moment =    -1.652451
N of occupied +U levels =   16.647069
 --- exit write_ns ---

 ------ SPIN UP ------------


          k = 0.0000 0.0000 0.0000 (  1479 PWs)   bands (ev):

   -90.9961 -88.6047 -51.3658 -51.3541 -51.3541 -49.0482 -49.0344 -49.0344
    -5.5487  -4.0711   4.8910   5.8899   5.8899   7.4023   7.4023   7.7242
     8.7775   8.7775  10.5269  11.9354  11.9354  11.9378  12.2152  12.2152
    15.9900  17.1717  17.1717  19.9141  24.6257  28.2668  28.2668  31.9599
    33.0527  33.0540  33.0540  35.4500

          k =-0.4330-0.2500 0.0884 (  1466 PWs)   bands (ev):

   -90.9949 -88.6034 -51.3650 -51.3644 -51.3569 -49.0471 -49.0467 -49.0376
    -4.9584  -4.0678   5.5634   6.0560   6.3032   6.7668   7.5001   7.7825
     7.9882   9.0011  10.0436  10.4130  11.2056  11.2830  12.1611  12.4471
    16.7186  17.0762  19.1277  22.6314  23.7523  25.5179  27.3366  29.4152
    29.4752  30.8300  32.8186  35.2788

          k = 0.8660 0.5000-0.1768 (  1470 PWs)   bands (ev):

   -90.9942 -88.6024 -51.3757 -51.3631 -51.3596 -49.0593 -49.0454 -49.0408
    -4.3935  -3.9190   5.7688   5.9863   6.0533   6.4087   7.6169   7.8936
     8.0103   8.9831   9.8120  10.3105  10.7315  10.9753  11.6963  12.3394
    17.0241  17.0759  21.8263  22.0508  24.0910  24.2659  25.9962  26.0149
    29.7144  29.9268  33.3611  33.3722

          k =-0.4330 0.2500 0.1768 (  1480 PWs)   bands (ev):

   -90.9950 -88.6035 -51.3651 -51.3644 -51.3569 -49.0471 -49.0466 -49.0376
    -4.8826  -4.1610   5.9646   6.0458   6.0510   6.5133   7.5112   7.8922
     8.0485   9.0495  10.0036  10.5309  10.7621  11.0022  12.5609  12.7435
    16.9934  17.0205  18.7992  21.9408  24.1739  26.0039  26.4719  29.8044
    30.5599  30.5768  33.3658  34.5811

          k = 0.8660 1.0000-0.0884 (  1465 PWs)   bands (ev):

   -90.9940 -88.6025 -51.3717 -51.3639 -51.3630 -49.0547 -49.0455 -49.0451
    -4.2711  -4.0539   5.6209   6.2377   6.2768   6.5578   6.9988   7.7714
     8.5606   8.7331  10.0029  10.3168  10.4127  11.0032  11.8193  12.1288
    16.8738  17.2293  21.6829  22.5805  24.3917  24.6356  25.3960  26.1270
    28.9909  29.4366  34.2852  34.6959

          k = 0.4330 0.7500 0.0000 (  1466 PWs)   bands (ev):

   -90.9940 -88.6024 -51.3718 -51.3639 -51.3630 -49.0547 -49.0456 -49.0451
    -4.2653  -4.0666   5.5186   6.4247   6.4840   6.7002   7.1043   7.2377
     8.4610   8.8250  10.1500  10.2625  10.3743  11.1037  11.4620  12.1880
    16.7334  17.4060  21.5898  22.9548  25.1216  25.1222  25.2862  25.4466
    27.7457  29.6513  35.8903  36.3439

          k = 0.8660-0.5000-0.3536 (  1494 PWs)   bands (ev):

   -90.9944 -88.6028 -51.3756 -51.3629 -51.3596 -49.0591 -49.0449 -49.0407
    -4.2387  -4.0710   4.8915   6.0168   6.3376   6.7687   7.7516   7.9819
     8.3450   9.0910   9.3645  10.5407  10.5421  10.5748  12.3264  12.4878
    17.3013  17.4553  19.9144  20.4255  24.6297  25.1967  26.3255  28.2659
    28.2681  31.0498  31.0519  35.4503

          k = 0.0000 0.0000 0.2652 (  1476 PWs)   bands (ev):

   -90.9959 -88.6046 -51.3658 -51.3541 -51.3541 -49.0483 -49.0344 -49.0344
    -5.3643  -4.3300   5.3944   5.9272   5.9272   7.4424   7.4424   7.5317
     8.6591   8.6591  10.3889  11.1757  11.5792  11.5792  12.6748  12.6748
    17.0710  17.0710  17.0717  19.7967  24.9133  28.8961  28.8961  29.2774
    32.4513  32.4513  34.1884  35.0682

          k = 1.2990 0.7500 0.0000 (  1471 PWs)   bands (ev):

   -90.9948 -88.6034 -51.3650 -51.3644 -51.3569 -49.0470 -49.0468 -49.0376
    -4.8021  -4.2459   5.4317   6.0939   6.6595   6.7670   7.5085   7.5376
     8.1500   8.8377   9.7765  10.7481  11.3692  11.7281  11.7795  11.9910
    16.4645  17.2203  20.1205  21.5900  25.2705  25.4430  27.3860  27.6606
    29.6399  30.8369  30.8479  35.8958

          k = 0.8660 0.5000 0.0884 (  1475 PWs)   bands (ev):

   -90.9943 -88.6026 -51.3756 -51.3630 -51.3596 -49.0592 -49.0451 -49.0407
    -4.3334  -3.9778   5.2138   6.0348   6.1323   6.7580   7.6263   7.9945
     8.1710   9.1533   9.4172  10.3375  10.6978  10.7795  12.1450  12.3321
    17.1631  17.2239  20.8510  21.0453  24.3770  25.0520  25.9672  27.1873
    28.7488  30.7320  31.5068  36.1729

          k = 1.2990-0.7500-0.2652 (  1471 PWs)   bands (ev):

   -90.9949 -88.6034 -51.3650 -51.3644 -51.3569 -49.0470 -49.0466 -49.0376
    -4.6331  -4.4318   5.6250   6.0886   6.4655   6.6436   7.5493   7.6714
     8.2138   8.8765   9.6932  10.4301  11.2373  11.4100  12.1103  12.5013
    16.7075  17.1426  19.9538  21.0314  25.5071  25.8220  26.6422  27.9745
    30.1097  30.4657  31.8011  35.2156

          k = 0.8660-1.0000-0.1768 (  1470 PWs)   bands (ev):

   -90.9940 -88.6026 -51.3717 -51.3639 -51.3630 -49.0546 -49.0455 -49.0451
    -4.2764  -4.0417   5.8806   5.9632   6.1343   6.2909   7.1454   8.1540
     8.3016   8.9459   9.9747  10.2910  10.5657  10.6881  12.0049  12.2522
    17.0369  17.0610  21.8567  22.0198  24.0920  24.2649  25.9645  26.0493
    29.7546  29.8863  33.3270  33.4056

          k = 0.0000 0.0000-0.5303 (  1490 PWs)   bands (ev):

   -90.9958 -88.6044 -51.3658 -51.3541 -51.3541 -49.0484 -49.0344 -49.0344
    -4.8885  -4.8767   5.9660   5.9660   6.2238   7.0128   7.4909   7.4909
     8.5319   8.5319  10.1618  10.6600  11.4121  11.4121  12.9492  12.9492
    16.9663  16.9663  18.7384  18.8638  26.4002  26.5349  30.4942  30.4942
    30.6231  30.6231  34.5411  34.6135

 ------ SPIN DOWN ----------


          k = 0.0000 0.0000 0.0000 (  1479 PWs)   bands (ev):

   -90.9961 -88.6047 -51.3658 -51.3541 -51.3541 -49.0482 -49.0344 -49.0344
    -5.5487  -4.0711   4.8910   5.8899   5.8899   7.4023   7.4023   7.7242
     8.7775   8.7775  10.5269  11.9354  11.9354  11.9378  12.2152  12.2152
    15.9900  17.1717  17.1717  19.9141  24.6257  28.2668  28.2668  31.9599
    33.0527  33.0540  33.0540  35.4500

          k =-0.4330-0.2500 0.0884 (  1466 PWs)   bands (ev):

   -90.9949 -88.6034 -51.3650 -51.3644 -51.3569 -49.0471 -49.0467 -49.0376
    -4.9584  -4.0678   5.5634   6.0560   6.3032   6.7668   7.5001   7.7825
     7.9882   9.0011  10.0436  10.4130  11.2056  11.2830  12.1611  12.4471
    16.7186  17.0762  19.1277  22.6314  23.7523  25.5179  27.3366  29.4152
    29.4752  30.8300  32.8186  35.2788

          k = 0.8660 0.5000-0.1768 (  1470 PWs)   bands (ev):

   -90.9942 -88.6024 -51.3757 -51.3631 -51.3596 -49.0593 -49.0454 -49.0408
    -4.3935  -3.9190   5.7688   5.9863   6.0533   6.4087   7.6169   7.8936
     8.0103   8.9831   9.8120  10.3105  10.7315  10.9753  11.6963  12.3394
    17.0241  17.0759  21.8263  22.0508  24.0910  24.2659  25.9962  26.0149
    29.7144  29.9268  33.3611  33.3722

          k =-0.4330 0.2500 0.1768 (  1480 PWs)   bands (ev):

   -90.9950 -88.6035 -51.3651 -51.3644 -51.3569 -49.0471 -49.0466 -49.0376
    -4.8826  -4.1610   5.9646   6.0458   6.0510   6.5133   7.5112   7.8922
     8.0485   9.0495  10.0036  10.5309  10.7621  11.0022  12.5609  12.7435
    16.9934  17.0205  18.7992  21.9408  24.1739  26.0039  26.4719  29.8044
    30.5599  30.5768  33.3658  34.5811

          k = 0.8660 1.0000-0.0884 (  1465 PWs)   bands (ev):

   -90.9940 -88.6025 -51.3717 -51.3639 -51.3630 -49.0547 -49.0455 -49.0451
    -4.2711  -4.0539   5.6209   6.2377   6.2768   6.5578   6.9988   7.7714
     8.5606   8.7331  10.0029  10.3168  10.4127  11.0032  11.8193  12.1288
    16.8738  17.2293  21.6829  22.5805  24.3917  24.6356  25.3960  26.1270
    28.9909  29.4366  34.2852  34.6959

          k = 0.4330 0.7500 0.0000 (  1466 PWs)   bands (ev):

   -90.9940 -88.6024 -51.3718 -51.3639 -51.3630 -49.0547 -49.0456 -49.0451
    -4.2653  -4.0666   5.5186   6.4247   6.4840   6.7002   7.1043   7.2377
     8.4610   8.8250  10.1500  10.2625  10.3743  11.1037  11.4620  12.1880
    16.7334  17.4060  21.5898  22.9548  25.1216  25.1222  25.2862  25.4466
    27.7457  29.6513  35.8903  36.3439

          k = 0.8660-0.5000-0.3536 (  1494 PWs)   bands (ev):

   -90.9944 -88.6028 -51.3756 -51.3629 -51.3596 -49.0591 -49.0449 -49.0407
    -4.2387  -4.0710   4.8915   6.0168   6.3376   6.7687   7.7516   7.9819
     8.3450   9.0910   9.3645  10.5407  10.5421  10.5748  12.3264  12.4878
    17.3013  17.4553  19.9144  20.4255  24.6297  25.1967  26.3255  28.2659
    28.2681  31.0498  31.0519  35.4503

          k = 0.0000 0.0000 0.2652 (  1476 PWs)   bands (ev):

   -90.9959 -88.6046 -51.3658 -51.3541 -51.3541 -49.0483 -49.0344 -49.0344
    -5.3643  -4.3300   5.3944   5.9272   5.9272   7.4424   7.4424   7.5317
     8.6591   8.6591  10.3889  11.1757  11.5792  11.5792  12.6748  12.6748
    17.0710  17.0710  17.0717  19.7967  24.9133  28.8961  28.8961  29.2774
    32.4513  32.4513  34.1884  35.0682

          k = 1.2990 0.7500 0.0000 (  1471 PWs)   bands (ev):

   -90.9948 -88.6034 -51.3650 -51.3644 -51.3569 -49.0470 -49.0468 -49.0376
    -4.8021  -4.2459   5.4317   6.0939   6.6595   6.7670   7.5085   7.5376
     8.1500   8.8377   9.7765  10.7481  11.3692  11.7281  11.7795  11.9910
    16.4645  17.2203  20.1205  21.5900  25.2705  25.4430  27.3860  27.6606
    29.6399  30.8369  30.8479  35.8958

          k = 0.8660 0.5000 0.0884 (  1475 PWs)   bands (ev):

   -90.9943 -88.6026 -51.3756 -51.3630 -51.3596 -49.0592 -49.0452 -49.0407
    -4.3334  -3.9778   5.2138   6.0348   6.1323   6.7580   7.6263   7.9945
     8.1710   9.1533   9.4172  10.3375  10.6978  10.7795  12.1450  12.3321
    17.1631  17.2239  20.8510  21.0453  24.3770  25.0520  25.9672  27.1873
    28.7488  30.7320  31.5068  36.1729

          k = 1.2990-0.7500-0.2652 (  1471 PWs)   bands (ev):

   -90.9949 -88.6034 -51.3650 -51.3644 -51.3569 -49.0470 -49.0466 -49.0376
    -4.6331  -4.4318   5.6250   6.0886   6.4655   6.6436   7.5493   7.6714
     8.2138   8.8765   9.6932  10.4301  11.2373  11.4100  12.1103  12.5013
    16.7075  17.1426  19.9538  21.0314  25.5071  25.8220  26.6422  27.9745
    30.1097  30.4657  31.8011  35.2156

          k = 0.8660-1.0000-0.1768 (  1470 PWs)   bands (ev):

   -90.9940 -88.6026 -51.3717 -51.3639 -51.3629 -49.0546 -49.0455 -49.0451
    -4.2764  -4.0417   5.8806   5.9632   6.1343   6.2909   7.1454   8.1540
     8.3016   8.9459   9.9747  10.2910  10.5657  10.6881  12.0049  12.2522
    17.0369  17.0610  21.8567  22.0198  24.0920  24.2649  25.9645  26.0493
    29.7546  29.8863  33.3270  33.4056

          k = 0.0000 0.0000-0.5303 (  1490 PWs)   bands (ev):

   -90.9958 -88.6044 -51.3658 -51.3541 -51.3541 -49.0484 -49.0344 -49.0344
    -4.8885  -4.8767   5.9660   5.9660   6.2238   7.0128   7.4909   7.4909
     8.5319   8.5319  10.1618  10.6600  11.4121  11.4121  12.9492  12.9492
    16.9663  16.9663  18.7384  18.8638  26.4002  26.5349  30.4942  30.4942
    30.6231  30.6231  34.5411  34.6135

     highest occupied, lowest unoccupied level (ev):    12.9492   15.9900

!    total energy              =    -769.53825269 Ry
     Harris-Foulkes estimate   =    -769.53825266 Ry
     estimated scf accuracy    <          3.8E-10 Ry

     The total energy is the sum of the following terms:

     one-electron contribution =    -432.34739309 Ry
     hartree contribution      =     245.49056361 Ry
     xc contribution           =     -86.18724039 Ry
     ewald contribution        =    -477.64553572 Ry
     Hubbard energy            =       0.17852483 Ry
     one-center paw contrib.   =     -19.02717192 Ry

     total magnetization       =    -0.00 Bohr mag/cell
     absolute magnetization    =     3.67 Bohr mag/cell

     convergence has been achieved in  16 iterations

     Forces acting on atoms (cartesian axes, Ry/au):

     atom    1 type  1   force =    -0.00000000    0.00000000    0.00000000
     atom    2 type  2   force =     0.00000000   -0.00000000   -0.00000000
     atom    3 type  3   force =     0.00000000    0.00000000    0.00000004
     atom    4 type  3   force =     0.00000000    0.00000000   -0.00000004

     Total force =     0.000000     Total SCF correction =     0.000001
     SCF correction compared to forces is large: reduce conv_thr to get better values

     Writing output data file NiO.save/
 
     init_run     :      2.28s CPU      2.54s WALL (       1 calls)
     electrons    :     67.54s CPU     69.79s WALL (       1 calls)
     forces       :      0.85s CPU      0.87s WALL (       1 calls)

     Called by init_run:
     wfcinit      :      1.14s CPU      1.20s WALL (       1 calls)
     potinit      :      0.43s CPU      0.54s WALL (       1 calls)
     hinit0       :      0.39s CPU      0.44s WALL (       1 calls)

     Called by electrons:
     c_bands      :     44.51s CPU     45.92s WALL (      16 calls)
     sum_band     :     14.95s CPU     15.41s WALL (      16 calls)
     v_of_rho     :      4.01s CPU      4.25s WALL (      17 calls)
     newd         :      1.96s CPU      2.11s WALL (      17 calls)
     PAW_pot      :      1.48s CPU      1.54s WALL (      17 calls)
     mix_rho      :      0.63s CPU      0.67s WALL (      16 calls)

     Called by c_bands:
     init_us_2    :      0.33s CPU      0.34s WALL (     936 calls)
     cegterg      :     43.46s CPU     44.82s WALL (     416 calls)

     Called by sum_band:
     sum_band:bec :      0.02s CPU      0.02s WALL (     416 calls)
     addusdens    :      3.33s CPU      3.45s WALL (      16 calls)

     Called by *egterg:
     h_psi        :     39.44s CPU     40.71s WALL (    1272 calls)
     s_psi        :      0.38s CPU      0.39s WALL (    1324 calls)
     g_psi        :      0.04s CPU      0.04s WALL (     830 calls)
     cdiaghg      :      2.25s CPU      2.30s WALL (    1246 calls)

     Called by h_psi:
     h_psi:pot    :     38.90s CPU     40.15s WALL (    1272 calls)
     h_psi:calbec :      0.68s CPU      0.70s WALL (    1272 calls)
     vloc_psi     :     37.83s CPU     39.05s WALL (    1272 calls)
     add_vuspsi   :      0.37s CPU      0.39s WALL (    1272 calls)
     vhpsi        :      0.44s CPU      0.46s WALL (    1272 calls)

     General routines
     calbec       :      1.38s CPU      1.44s WALL (    4494 calls)
     fft          :      3.29s CPU      3.56s WALL (     438 calls)
     ffts         :      0.07s CPU      0.08s WALL (      66 calls)
     fftw         :     37.58s CPU     38.87s WALL (   87616 calls)
     interpolate  :      0.32s CPU      0.35s WALL (      34 calls)
     davcio       :      0.00s CPU      0.00s WALL (      26 calls)
 
     Parallel routines
     fft_scatt_xy :      6.70s CPU      6.90s WALL (   88120 calls)
     fft_scatt_yz :      9.84s CPU     10.42s WALL (   88120 calls)

     Hubbard U routines
     new_ns       :      0.10s CPU      0.10s WALL (      16 calls)
     vhpsi        :      0.44s CPU      0.46s WALL (    1272 calls)
     force_hub    :      0.16s CPU      0.17s WALL (       1 calls)
 
     PWSCF        :   1m11.33s CPU   1m13.92s WALL

 
   This run was terminated on:  16:44: 4  24Jul2019            

=------------------------------------------------------------------------------=
   JOB DONE.
=------------------------------------------------------------------------------=
