
     Program PWSCF v.6.4.1 starts on 29Jul2019 at 14: 5:37 

     This program is part of the open-source Quantum ESPRESSO suite
     for quantum simulation of materials; please cite
         "P. Giannozzi et al., J. Phys.:Condens. Matter 21 395502 (2009);
         "P. Giannozzi et al., J. Phys.:Condens. Matter 29 465901 (2017);
          URL http://www.quantum-espresso.org", 
     in publications or presentations arising from this work. More details at
     http://www.quantum-espresso.org/quote

     Parallel version (MPI), running on     4 processors

     MPI processes distributed on     1 nodes
     R & G space division:  proc/nbgrp/npool/nimage =       4
     Reading input from h2.relax.in

     Current dimensions of program PWSCF are:
     Max number of different atomic species (ntypx) = 10
     Max number of k-points (npk) =  40000
     Max angular momentum in pseudopotentials (lmaxx) =  3

     Subspace diagonalization in iterative solution of the eigenvalue problem:
     a serial algorithm will be used

 
     Parallelization info
     --------------------
     sticks:   dense  smooth     PW     G-vecs:    dense   smooth      PW
     Min         952     952    237                44376    44376    5529
     Max         953     953    238                44379    44379    5532
     Sum        3809    3809    949               177509   177509   22119
 


     bravais-lattice index     =            1
     lattice parameter (alat)  =      20.0000  a.u.
     unit-cell volume          =    8000.0000 (a.u.)^3
     number of atoms/cell      =            2
     number of atomic types    =            1
     number of electrons       =         2.00
     number of Kohn-Sham states=            1
     kinetic-energy cutoff     =      30.0000  Ry
     charge density cutoff     =     120.0000  Ry
     convergence threshold     =      1.0E-08
     mixing beta               =       0.7000
     number of iterations used =            8  plain     mixing
     Exchange-correlation      = PBE ( 1  4  3  4 0 0)
     nstep                     =           50


     celldm(1)=  20.000000  celldm(2)=   0.000000  celldm(3)=   0.000000
     celldm(4)=   0.000000  celldm(5)=   0.000000  celldm(6)=   0.000000

     crystal axes: (cart. coord. in units of alat)
               a(1) = (   1.000000   0.000000   0.000000 )  
               a(2) = (   0.000000   1.000000   0.000000 )  
               a(3) = (   0.000000   0.000000   1.000000 )  

     reciprocal axes: (cart. coord. in units 2 pi/alat)
               b(1) = (  1.000000  0.000000  0.000000 )  
               b(2) = (  0.000000  1.000000  0.000000 )  
               b(3) = (  0.000000  0.000000  1.000000 )  


     PseudoPot. # 1 for H  read from file:
     /home/bngjn/qe/SSSP_precision_pseudos/H_ONCV_PBE-1.0.oncvpsp.upf
     MD5 check sum: 1790becc920ee074925cf490c71280fe
     Pseudo is Norm-conserving, Zval =  1.0
     Generated using ONCVPSP code by D. R. Hamann
     Using radial grid of 1166 points,  2 beta functions with: 
                l(1) =   0
                l(2) =   0

     atomic species   valence    mass     pseudopotential
        H              1.00     1.00784     H ( 1.00)

      8 Sym. Ops. (no inversion) found



   Cartesian axes

     site n.     atom                  positions (alat units)
         1           H   tau(   1) = (   0.0000000   0.0000000   0.0000000  )
         2           H   tau(   2) = (   0.0944863   0.0000000   0.0000000  )

     number of k points=     1
                       cart. coord. in units 2pi/alat
        k(    1) = (   0.0000000   0.0000000   0.0000000), wk =   2.0000000

     Dense  grid:   177509 G-vectors     FFT dimensions: (  72,  72,  72)

     Estimated max dynamical RAM per process >      26.04 MB

     Estimated total dynamical RAM >     104.16 MB

     Initial potential from superposition of free atoms

     starting charge    1.99998, renormalised to    2.00000

     negative rho (up, down):  1.521E-03 0.000E+00
     Starting wfcs are    2 randomized atomic wfcs

     total cpu time spent up to now is        0.4 secs

     Self-consistent Calculation

     iteration #  1     ecut=    30.00 Ry     beta= 0.70
     Davidson diagonalization with overlap
     ethr =  1.00E-02,  avg # of iterations =  2.0

     negative rho (up, down):  4.300E-04 0.000E+00

     total cpu time spent up to now is        0.6 secs

     total energy              =      -2.26720603 Ry
     Harris-Foulkes estimate   =      -2.29162932 Ry
     estimated scf accuracy    <       0.05419680 Ry

     iteration #  2     ecut=    30.00 Ry     beta= 0.70
     Davidson diagonalization with overlap
     ethr =  2.71E-03,  avg # of iterations =  1.0

     negative rho (up, down):  7.908E-05 0.000E+00

     total cpu time spent up to now is        0.9 secs

     total energy              =      -2.27063235 Ry
     Harris-Foulkes estimate   =      -2.27093673 Ry
     estimated scf accuracy    <       0.00076407 Ry

     iteration #  3     ecut=    30.00 Ry     beta= 0.70
     Davidson diagonalization with overlap
     ethr =  3.82E-05,  avg # of iterations =  2.0

     negative rho (up, down):  8.602E-08 0.000E+00

     total cpu time spent up to now is        1.1 secs

     total energy              =      -2.27082342 Ry
     Harris-Foulkes estimate   =      -2.27082560 Ry
     estimated scf accuracy    <       0.00002067 Ry

     iteration #  4     ecut=    30.00 Ry     beta= 0.70
     Davidson diagonalization with overlap
     ethr =  1.03E-06,  avg # of iterations =  1.0

     negative rho (up, down):  3.308E-08 0.000E+00

     total cpu time spent up to now is        1.3 secs

     total energy              =      -2.27082427 Ry
     Harris-Foulkes estimate   =      -2.27082521 Ry
     estimated scf accuracy    <       0.00000167 Ry

     iteration #  5     ecut=    30.00 Ry     beta= 0.70
     Davidson diagonalization with overlap
     ethr =  8.33E-08,  avg # of iterations =  2.0

     total cpu time spent up to now is        1.5 secs

     End of self-consistent calculation

          k = 0.0000 0.0000 0.0000 ( 22119 PWs)   bands (ev):

    -9.2683

     highest occupied level (ev):    -9.2683

!    total energy              =      -2.27082444 Ry
     Harris-Foulkes estimate   =      -2.27082445 Ry
     estimated scf accuracy    <          4.8E-09 Ry

     The total energy is the sum of the following terms:

     one-electron contribution =      -3.28027098 Ry
     hartree contribution      =       1.75239720 Ry
     xc contribution           =      -1.23574017 Ry
     ewald contribution        =       0.49278952 Ry

     convergence has been achieved in   5 iterations

     Forces acting on atoms (cartesian axes, Ry/au):

     atom    1 type  1   force =     0.16073955    0.00000000    0.00000000
     atom    2 type  1   force =    -0.16073955    0.00000000    0.00000000

     Total force =     0.227320     Total SCF correction =     0.000015

     BFGS Geometry Optimization

     number of scf cycles    =   1
     number of bfgs steps    =   0

     energy   new            =      -2.2708244367 Ry

     new trust radius        =       0.1607395468 bohr
     new conv_thr            =       0.0000000100 Ry


ATOMIC_POSITIONS (angstrom)
H        0.085059705   0.000000000   0.000000000
H        0.914940295   0.000000000   0.000000000



     Writing output data file h2.save/
     Message from routine punch:
     wavefunctions written to file
     NEW-OLD atomic charge density approx. for the potential

     negative rho (up, down):  1.778E-03 0.000E+00

     total cpu time spent up to now is        1.8 secs

     Self-consistent Calculation

     iteration #  1     ecut=    30.00 Ry     beta= 0.70
     Davidson diagonalization with overlap
     ethr =  1.00E-06,  avg # of iterations =  4.0

     negative rho (up, down):  4.731E-04 0.000E+00

     total cpu time spent up to now is        2.1 secs

     total energy              =      -2.31012674 Ry
     Harris-Foulkes estimate   =      -2.31176314 Ry
     estimated scf accuracy    <       0.00422841 Ry

     iteration #  2     ecut=    30.00 Ry     beta= 0.70
     Davidson diagonalization with overlap
     ethr =  2.11E-04,  avg # of iterations =  1.0

     negative rho (up, down):  8.624E-05 0.000E+00

     total cpu time spent up to now is        2.3 secs

     total energy              =      -2.31047727 Ry
     Harris-Foulkes estimate   =      -2.31045849 Ry
     estimated scf accuracy    <       0.00005948 Ry

     iteration #  3     ecut=    30.00 Ry     beta= 0.70
     Davidson diagonalization with overlap
     ethr =  2.97E-06,  avg # of iterations =  2.0

     negative rho (up, down):  3.009E-08 0.000E+00

     total cpu time spent up to now is        2.5 secs

     total energy              =      -2.31049071 Ry
     Harris-Foulkes estimate   =      -2.31048827 Ry
     estimated scf accuracy    <       0.00000206 Ry

     iteration #  4     ecut=    30.00 Ry     beta= 0.70
     Davidson diagonalization with overlap
     ethr =  1.03E-07,  avg # of iterations =  1.0

     negative rho (up, down):  3.179E-07 0.000E+00

     total cpu time spent up to now is        2.8 secs

     total energy              =      -2.31049080 Ry
     Harris-Foulkes estimate   =      -2.31049081 Ry
     estimated scf accuracy    <       0.00000002 Ry

     iteration #  5     ecut=    30.00 Ry     beta= 0.70
     Davidson diagonalization with overlap
     ethr =  1.20E-09,  avg # of iterations =  1.0

     total cpu time spent up to now is        2.9 secs

     End of self-consistent calculation

          k = 0.0000 0.0000 0.0000 ( 22119 PWs)   bands (ev):

    -9.9111

     highest occupied level (ev):    -9.9111

!    total energy              =      -2.31049081 Ry
     Harris-Foulkes estimate   =      -2.31049080 Ry
     estimated scf accuracy    <          1.5E-09 Ry

     The total energy is the sum of the following terms:

     one-electron contribution =      -3.63814103 Ry
     hartree contribution      =       1.93787357 Ry
     xc contribution           =      -1.31937261 Ry
     ewald contribution        =       0.70914926 Ry

     convergence has been achieved in   5 iterations

     Forces acting on atoms (cartesian axes, Ry/au):

     atom    1 type  1   force =     0.06998674    0.00000000    0.00000000
     atom    2 type  1   force =    -0.06998674    0.00000000    0.00000000

     Total force =     0.098976     Total SCF correction =     0.000005

     number of scf cycles    =   2
     number of bfgs steps    =   1

     energy   old            =      -2.2708244367 Ry
     energy   new            =      -2.3104908065 Ry

     CASE: energy  _new < energy  _old

     new trust radius        =       0.1239590966 bohr
     new conv_thr            =       0.0000000070 Ry


ATOMIC_POSITIONS (angstrom)
H        0.150656033   0.000000000   0.000000000
H        0.849343967   0.000000000   0.000000000



     Writing output data file h2.save/
     Message from routine punch:
     wavefunctions written to file
     NEW-OLD atomic charge density approx. for the potential

     negative rho (up, down):  1.413E-03 0.000E+00

     total cpu time spent up to now is        3.2 secs

     Self-consistent Calculation

     iteration #  1     ecut=    30.00 Ry     beta= 0.70
     Davidson diagonalization with overlap
     ethr =  1.00E-06,  avg # of iterations =  4.0

     negative rho (up, down):  3.735E-04 0.000E+00

     total cpu time spent up to now is        3.5 secs

     total energy              =      -2.30947726 Ry
     Harris-Foulkes estimate   =      -2.31143723 Ry
     estimated scf accuracy    <       0.00452636 Ry

     iteration #  2     ecut=    30.00 Ry     beta= 0.70
     Davidson diagonalization with overlap
     ethr =  2.26E-04,  avg # of iterations =  1.0

     negative rho (up, down):  7.076E-05 0.000E+00

     total cpu time spent up to now is        3.7 secs

     total energy              =      -2.30987656 Ry
     Harris-Foulkes estimate   =      -2.30986641 Ry
     estimated scf accuracy    <       0.00005075 Ry

     iteration #  3     ecut=    30.00 Ry     beta= 0.70
     Davidson diagonalization with overlap
     ethr =  2.54E-06,  avg # of iterations =  2.0

     negative rho (up, down):  3.833E-08 0.000E+00

     total cpu time spent up to now is        3.9 secs

     total energy              =      -2.30988806 Ry
     Harris-Foulkes estimate   =      -2.30988630 Ry
     estimated scf accuracy    <       0.00000190 Ry

     iteration #  4     ecut=    30.00 Ry     beta= 0.70
     Davidson diagonalization with overlap
     ethr =  9.52E-08,  avg # of iterations =  1.0

     negative rho (up, down):  1.689E-07 0.000E+00

     total cpu time spent up to now is        4.2 secs

     total energy              =      -2.30988814 Ry
     Harris-Foulkes estimate   =      -2.30988814 Ry
     estimated scf accuracy    <       0.00000002 Ry

     iteration #  5     ecut=    30.00 Ry     beta= 0.70
     Davidson diagonalization with overlap
     ethr =  9.00E-10,  avg # of iterations =  1.0

     total cpu time spent up to now is        4.4 secs

     End of self-consistent calculation

          k = 0.0000 0.0000 0.0000 ( 22119 PWs)   bands (ev):

   -10.5242

     highest occupied level (ev):   -10.5242

!    total energy              =      -2.30988813 Ry
     Harris-Foulkes estimate   =      -2.30988815 Ry
     estimated scf accuracy    <          1.3E-09 Ry

     The total energy is the sum of the following terms:

     one-electron contribution =      -3.96823328 Ry
     hartree contribution      =       2.10874434 Ry
     xc contribution           =      -1.39863250 Ry
     ewald contribution        =       0.94823331 Ry

     convergence has been achieved in   5 iterations

     Forces acting on atoms (cartesian axes, Ry/au):

     atom    1 type  1   force =    -0.09508667    0.00000000    0.00000000
     atom    2 type  1   force =     0.09508667    0.00000000    0.00000000

     Total force =     0.134473     Total SCF correction =     0.000006

     number of scf cycles    =   3
     number of bfgs steps    =   2

     energy   old            =      -2.3104908065 Ry
     energy   new            =      -2.3098881324 Ry

     CASE: energy  _new > energy  _old

     new trust radius        =       0.0598989992 bohr
     new conv_thr            =       0.0000000070 Ry


ATOMIC_POSITIONS (angstrom)
H        0.116756890   0.000000000   0.000000000
H        0.883243110   0.000000000   0.000000000



     Writing output data file h2.save/
     Message from routine punch:
     wavefunctions written to file
     NEW-OLD atomic charge density approx. for the potential

     negative rho (up, down):  6.201E-04 0.000E+00

     total cpu time spent up to now is        4.6 secs

     Self-consistent Calculation

     iteration #  1     ecut=    30.00 Ry     beta= 0.70
     Davidson diagonalization with overlap
     ethr =  1.00E-06,  avg # of iterations =  4.0

     negative rho (up, down):  1.590E-04 0.000E+00

     total cpu time spent up to now is        4.9 secs

     total energy              =      -2.31508696 Ry
     Harris-Foulkes estimate   =      -2.31568586 Ry
     estimated scf accuracy    <       0.00136675 Ry

     iteration #  2     ecut=    30.00 Ry     beta= 0.70
     Davidson diagonalization with overlap
     ethr =  6.83E-05,  avg # of iterations =  1.0

     negative rho (up, down):  2.881E-05 0.000E+00

     total cpu time spent up to now is        5.1 secs

     total energy              =      -2.31521968 Ry
     Harris-Foulkes estimate   =      -2.31521340 Ry
     estimated scf accuracy    <       0.00001625 Ry

     iteration #  3     ecut=    30.00 Ry     beta= 0.70
     Davidson diagonalization with overlap
     ethr =  8.12E-07,  avg # of iterations =  2.0

     negative rho (up, down):  9.244E-08 0.000E+00

     total cpu time spent up to now is        5.3 secs

     total energy              =      -2.31522268 Ry
     Harris-Foulkes estimate   =      -2.31522276 Ry
     estimated scf accuracy    <       0.00000086 Ry

     iteration #  4     ecut=    30.00 Ry     beta= 0.70
     Davidson diagonalization with overlap
     ethr =  4.29E-08,  avg # of iterations =  1.0

     total cpu time spent up to now is        5.5 secs

     End of self-consistent calculation

          k = 0.0000 0.0000 0.0000 ( 22119 PWs)   bands (ev):

   -10.1914

     highest occupied level (ev):   -10.1914

!    total energy              =      -2.31522268 Ry
     Harris-Foulkes estimate   =      -2.31522271 Ry
     estimated scf accuracy    <          3.3E-09 Ry

     The total energy is the sum of the following terms:

     one-electron contribution =      -3.79076625 Ry
     hartree contribution      =       2.01688945 Ry
     xc contribution           =      -1.35578070 Ry
     ewald contribution        =       0.81443483 Ry

     convergence has been achieved in   4 iterations

     Forces acting on atoms (cartesian axes, Ry/au):

     atom    1 type  1   force =     0.00527737    0.00000000    0.00000000
     atom    2 type  1   force =    -0.00527737    0.00000000    0.00000000

     Total force =     0.007463     Total SCF correction =     0.000014

     number of scf cycles    =   4
     number of bfgs steps    =   2

     energy   old            =      -2.3104908065 Ry
     energy   new            =      -2.3152226802 Ry

     CASE: energy  _new < energy  _old

     new trust radius        =       0.0048850637 bohr
     new conv_thr            =       0.0000000005 Ry


ATOMIC_POSITIONS (angstrom)
H        0.119341954   0.000000000   0.000000000
H        0.880658046   0.000000000   0.000000000



     Writing output data file h2.save/
     Message from routine punch:
     wavefunctions written to file
     NEW-OLD atomic charge density approx. for the potential

     negative rho (up, down):  3.480E-05 0.000E+00

     total cpu time spent up to now is        5.8 secs

     Self-consistent Calculation

     iteration #  1     ecut=    30.00 Ry     beta= 0.70
     Davidson diagonalization with overlap
     ethr =  1.00E-06,  avg # of iterations =  2.0

     negative rho (up, down):  7.364E-06 0.000E+00

     total cpu time spent up to now is        6.0 secs

     total energy              =      -2.31524252 Ry
     Harris-Foulkes estimate   =      -2.31524527 Ry
     estimated scf accuracy    <       0.00000674 Ry

     iteration #  2     ecut=    30.00 Ry     beta= 0.70
     Davidson diagonalization with overlap
     ethr =  3.37E-07,  avg # of iterations =  1.0

     negative rho (up, down):  8.387E-07 0.000E+00

     total cpu time spent up to now is        6.2 secs

     total energy              =      -2.31524310 Ry
     Harris-Foulkes estimate   =      -2.31524306 Ry
     estimated scf accuracy    <       0.00000012 Ry

     iteration #  3     ecut=    30.00 Ry     beta= 0.70
     Davidson diagonalization with overlap
     ethr =  6.23E-09,  avg # of iterations =  2.0

     negative rho (up, down):  4.847E-08 0.000E+00

     total cpu time spent up to now is        6.5 secs

     total energy              =      -2.31524319 Ry
     Harris-Foulkes estimate   =      -2.31524313 Ry
     estimated scf accuracy    <          6.5E-09 Ry

     iteration #  4     ecut=    30.00 Ry     beta= 0.70
     Davidson diagonalization with overlap
     ethr =  3.24E-10,  avg # of iterations =  2.0

     total cpu time spent up to now is        6.7 secs

     total energy              =      -2.31524320 Ry
     Harris-Foulkes estimate   =      -2.31524319 Ry
     estimated scf accuracy    <          7.4E-10 Ry

     iteration #  5     ecut=    30.00 Ry     beta= 0.70
     Davidson diagonalization with overlap
     ethr =  3.71E-11,  avg # of iterations =  1.0

     total cpu time spent up to now is        6.9 secs

     End of self-consistent calculation

          k = 0.0000 0.0000 0.0000 ( 22119 PWs)   bands (ev):

   -10.2161

     highest occupied level (ev):   -10.2161

!    total energy              =      -2.31524320 Ry
     Harris-Foulkes estimate   =      -2.31524320 Ry
     estimated scf accuracy    <          4.4E-12 Ry

     The total energy is the sum of the following terms:

     one-electron contribution =      -3.80375689 Ry
     hartree contribution      =       2.02361596 Ry
     xc contribution           =      -1.35889908 Ry
     ewald contribution        =       0.82379681 Ry

     convergence has been achieved in   5 iterations

     Forces acting on atoms (cartesian axes, Ry/au):

     atom    1 type  1   force =    -0.00107309    0.00000000    0.00000000
     atom    2 type  1   force =     0.00107309    0.00000000    0.00000000

     Total force =     0.001518     Total SCF correction =     0.000000

     number of scf cycles    =   5
     number of bfgs steps    =   3

     energy   old            =      -2.3152226802 Ry
     energy   new            =      -2.3152431963 Ry

     CASE: energy  _new < energy  _old

     new trust radius        =       0.0008254712 bohr
     new conv_thr            =            1.0E-10 Ry


ATOMIC_POSITIONS (angstrom)
H        0.118905134   0.000000000   0.000000000
H        0.881094866   0.000000000   0.000000000



     Writing output data file h2.save/
     Message from routine punch:
     wavefunctions written to file
     NEW-OLD atomic charge density approx. for the potential

     negative rho (up, down):  3.190E-06 0.000E+00

     total cpu time spent up to now is        7.2 secs

     Self-consistent Calculation

     iteration #  1     ecut=    30.00 Ry     beta= 0.70
     Davidson diagonalization with overlap
     ethr =  1.00E-06,  avg # of iterations =  1.0

     Threshold (ethr) on eigenvalues was too large:
     Diagonalizing with lowered threshold

     Davidson diagonalization with overlap
     ethr =  6.08E-09,  avg # of iterations =  2.0

     negative rho (up, down):  5.653E-07 0.000E+00

     total cpu time spent up to now is        7.5 secs

     total energy              =      -2.31524408 Ry
     Harris-Foulkes estimate   =      -2.31524412 Ry
     estimated scf accuracy    <       0.00000020 Ry

     iteration #  2     ecut=    30.00 Ry     beta= 0.70
     Davidson diagonalization with overlap
     ethr =  1.01E-08,  avg # of iterations =  1.0

     negative rho (up, down):  6.485E-08 0.000E+00

     total cpu time spent up to now is        7.7 secs

     total energy              =      -2.31524409 Ry
     Harris-Foulkes estimate   =      -2.31524409 Ry
     estimated scf accuracy    <          2.6E-09 Ry

     iteration #  3     ecut=    30.00 Ry     beta= 0.70
     Davidson diagonalization with overlap
     ethr =  1.28E-10,  avg # of iterations =  2.0

     total cpu time spent up to now is        7.9 secs

     total energy              =      -2.31524409 Ry
     Harris-Foulkes estimate   =      -2.31524409 Ry
     estimated scf accuracy    <          1.1E-10 Ry

     iteration #  4     ecut=    30.00 Ry     beta= 0.70
     Davidson diagonalization with overlap
     ethr =  5.56E-12,  avg # of iterations =  1.0

     total cpu time spent up to now is        8.1 secs

     End of self-consistent calculation

          k = 0.0000 0.0000 0.0000 ( 22119 PWs)   bands (ev):

   -10.2120

     highest occupied level (ev):   -10.2120

!    total energy              =      -2.31524409 Ry
     Harris-Foulkes estimate   =      -2.31524409 Ry
     estimated scf accuracy    <          1.0E-12 Ry

     The total energy is the sum of the following terms:

     one-electron contribution =      -3.80155524 Ry
     hartree contribution      =       2.02247497 Ry
     xc contribution           =      -1.35836971 Ry
     ewald contribution        =       0.82220590 Ry

     convergence has been achieved in   4 iterations

     Forces acting on atoms (cartesian axes, Ry/au):

     atom    1 type  1   force =     0.00001207    0.00000000    0.00000000
     atom    2 type  1   force =    -0.00001207    0.00000000    0.00000000

     Total force =     0.000017     Total SCF correction =     0.000000

     bfgs converged in   6 scf cycles and   4 bfgs steps
     (criteria: energy <  1.0E-04 Ry, force <  1.0E-03 Ry/Bohr)

     End of BFGS Geometry Optimization

     Final energy   =      -2.3152440860 Ry
Begin final coordinates

ATOMIC_POSITIONS (angstrom)
H        0.118905134   0.000000000   0.000000000
H        0.881094866   0.000000000   0.000000000
End final coordinates



     Writing output data file h2.save/
 
     init_run     :      0.27s CPU      0.31s WALL (       1 calls)
     electrons    :      6.33s CPU      6.50s WALL (       6 calls)
     update_pot   :      0.85s CPU      0.89s WALL (       5 calls)
     forces       :      0.24s CPU      0.25s WALL (       6 calls)

     Called by init_run:
     wfcinit      :      0.02s CPU      0.02s WALL (       1 calls)
     potinit      :      0.15s CPU      0.17s WALL (       1 calls)
     hinit0       :      0.03s CPU      0.03s WALL (       1 calls)

     Called by electrons:
     c_bands      :      0.81s CPU      0.83s WALL (      29 calls)
     sum_band     :      1.14s CPU      1.15s WALL (      29 calls)
     v_of_rho     :      4.22s CPU      4.29s WALL (      34 calls)
     mix_rho      :      0.74s CPU      0.79s WALL (      29 calls)

     Called by c_bands:
     init_us_2    :      0.03s CPU      0.03s WALL (      59 calls)
     cegterg      :      0.78s CPU      0.79s WALL (      29 calls)

     Called by sum_band:

     Called by *egterg:
     h_psi        :      0.77s CPU      0.78s WALL (      79 calls)
     g_psi        :      0.00s CPU      0.00s WALL (      49 calls)
     cdiaghg      :      0.00s CPU      0.00s WALL (      72 calls)

     Called by h_psi:
     h_psi:pot    :      0.77s CPU      0.78s WALL (      79 calls)
     h_psi:calbec :      0.02s CPU      0.02s WALL (      79 calls)
     vloc_psi     :      0.74s CPU      0.75s WALL (      79 calls)
     add_vuspsi   :      0.01s CPU      0.01s WALL (      79 calls)

     General routines
     calbec       :      0.02s CPU      0.02s WALL (     103 calls)
     fft          :      3.57s CPU      3.63s WALL (     352 calls)
     ffts         :      0.28s CPU      0.28s WALL (      29 calls)
     fftw         :      0.68s CPU      0.69s WALL (     189 calls)
     davcio       :      0.00s CPU      0.00s WALL (       5 calls)
 
     Parallel routines
     fft_scatt_xy :      0.60s CPU      0.61s WALL (     570 calls)
     fft_scatt_yz :      2.06s CPU      2.09s WALL (     570 calls)
 
     PWSCF        :      7.91s CPU      8.20s WALL

 
   This run was terminated on:  14: 5:46  29Jul2019            

=------------------------------------------------------------------------------=
   JOB DONE.
=------------------------------------------------------------------------------=
