
     Program PWSCF v.6.4.1 starts on 24Jul2019 at  1:39:21 

     This program is part of the open-source Quantum ESPRESSO suite
     for quantum simulation of materials; please cite
         "P. Giannozzi et al., J. Phys.:Condens. Matter 21 395502 (2009);
         "P. Giannozzi et al., J. Phys.:Condens. Matter 29 465901 (2017);
          URL http://www.quantum-espresso.org", 
     in publications or presentations arising from this work. More details at
     http://www.quantum-espresso.org/quote

     Parallel version (MPI), running on     4 processors

     MPI processes distributed on     1 nodes
     R & G space division:  proc/nbgrp/npool/nimage =       4
     Reading input from fe.scf_noncollin.in

     Current dimensions of program PWSCF are:
     Max number of different atomic species (ntypx) = 10
     Max number of k-points (npk) =  40000
     Max angular momentum in pseudopotentials (lmaxx) =  3
               file Fe.pbe-spn-kjpaw_psl.0.2.1.UPF: wavefunction(s)  3D renormalized

     Fixed quantization axis for GGA:     1.000000    0.000000    0.000000

     Subspace diagonalization in iterative solution of the eigenvalue problem:
     a serial algorithm will be used

 
     Parallelization info
     --------------------
     sticks:   dense  smooth     PW     G-vecs:    dense   smooth      PW
     Min         117      57     20                 1614      560     114
     Max         118      58     21                 1615      563     115
     Sum         471     229     83                 6459     2243     459
 


     bravais-lattice index     =            3
     lattice parameter (alat)  =       5.0958  a.u.
     unit-cell volume          =      66.1624 (a.u.)^3
     number of atoms/cell      =            1
     number of atomic types    =            1
     number of electrons       =        16.00
     number of Kohn-Sham states=           24
     kinetic-energy cutoff     =      40.0000  Ry
     charge density cutoff     =     320.0000  Ry
     convergence threshold     =      1.0E-08
     mixing beta               =       0.3000
     number of iterations used =            8  plain     mixing
     Exchange-correlation      = SLA PW PBX PBC ( 1  4  3  4 0 0)
     Noncollinear calculation without spin-orbit


     celldm(1)=   5.095816  celldm(2)=   0.000000  celldm(3)=   0.000000
     celldm(4)=   0.000000  celldm(5)=   0.000000  celldm(6)=   0.000000

     crystal axes: (cart. coord. in units of alat)
               a(1) = (   0.500000   0.500000   0.500000 )  
               a(2) = (  -0.500000   0.500000   0.500000 )  
               a(3) = (  -0.500000  -0.500000   0.500000 )  

     reciprocal axes: (cart. coord. in units 2 pi/alat)
               b(1) = (  1.000000  0.000000  1.000000 )  
               b(2) = ( -1.000000  1.000000  0.000000 )  
               b(3) = (  0.000000 -1.000000  1.000000 )  


     PseudoPot. # 1 for Fe read from file:
     /home/bngjn/qe/SSSP_precision_pseudos/Fe.pbe-spn-kjpaw_psl.0.2.1.UPF
     MD5 check sum: e86618425769142926afa95317d90200
     Pseudo is Projector augmented-wave + core cor, Zval = 16.0
     Generated using "atomic" code by A. Dal Corso v.5.0.99 svn rev. 10869
     Shape of augmentation charge: PSQ
     Using radial grid of 1191 points,  6 beta functions with: 
                l(1) =   0
                l(2) =   0
                l(3) =   1
                l(4) =   1
                l(5) =   2
                l(6) =   2
     Q(r) pseudized with 0 coefficients 


     atomic species   valence    mass     pseudopotential
        Fe            16.00    55.84500     Fe( 1.00)

     16 Sym. Ops., with inversion, found



   Cartesian axes

     site n.     atom                  positions (alat units)
         1           Fe  tau(   1) = (   0.0000000   0.0000000   0.0000000  )

     number of k points=   102  Marzari-Vanderbilt smearing, width (Ry)=  0.0200

     Number of k-points >= 100: set verbosity='high' to print them.

     Dense  grid:     6459 G-vectors     FFT dimensions: (  25,  25,  25)

     Smooth grid:     2243 G-vectors     FFT dimensions: (  18,  18,  18)

     Estimated max dynamical RAM per process >      14.09 MB

     Estimated total dynamical RAM >      56.34 MB
     Generating pointlists ...
     new r_m :   0.3572 (alat units)  1.8204 (a.u.) for type    1

     Check: negative core charge=   -0.000327

     Initial potential from superposition of free atoms

     starting charge   15.99956, renormalised to   16.00000

 ==============================================================================
     atom number    1 relative position :    0.0000   0.0000   0.0000
     charge :    14.344415
     magnetization :          1.434442    0.000000    0.000000
     magnetization/charge:    0.100000    0.000000    0.000000
     polar coord.: r, theta, phi [deg] :     1.434442   90.000000    0.000000

 ==============================================================================
     Starting wfcs are   26 randomized atomic wfcs
     Checking if some PAW data can be deallocated... 

     total cpu time spent up to now is        2.7 secs

     Self-consistent Calculation

     iteration #  1     ecut=    40.00 Ry     beta= 0.30
     Davidson diagonalization with overlap
     ethr =  1.00E-02,  avg # of iterations =  4.1

     Threshold (ethr) on eigenvalues was too large:
     Diagonalizing with lowered threshold

     Davidson diagonalization with overlap
     ethr =  2.50E-04,  avg # of iterations =  2.2

     total cpu time spent up to now is        7.6 secs

     total energy              =    -329.14606800 Ry
     Harris-Foulkes estimate   =    -329.15576636 Ry
     estimated scf accuracy    <       0.04033844 Ry

     total magnetization       =     1.66     0.00    -0.00 Bohr mag/cell
     absolute magnetization    =     1.67 Bohr mag/cell

     iteration #  2     ecut=    40.00 Ry     beta= 0.30
     Davidson diagonalization with overlap
     ethr =  2.52E-04,  avg # of iterations =  2.0

     total cpu time spent up to now is       10.0 secs

     total energy              =    -329.15589456 Ry
     Harris-Foulkes estimate   =    -329.15305768 Ry
     estimated scf accuracy    <       0.00708014 Ry

     total magnetization       =     1.77    -0.00     0.00 Bohr mag/cell
     absolute magnetization    =     1.78 Bohr mag/cell

     iteration #  3     ecut=    40.00 Ry     beta= 0.30
     Davidson diagonalization with overlap
     ethr =  4.43E-05,  avg # of iterations =  1.5

     total cpu time spent up to now is       12.3 secs

     total energy              =    -329.15876348 Ry
     Harris-Foulkes estimate   =    -329.15619713 Ry
     estimated scf accuracy    <       0.00438299 Ry

     total magnetization       =     1.80    -0.00     0.00 Bohr mag/cell
     absolute magnetization    =     1.81 Bohr mag/cell

     iteration #  4     ecut=    40.00 Ry     beta= 0.30
     Davidson diagonalization with overlap
     ethr =  2.74E-05,  avg # of iterations =  2.1

     total cpu time spent up to now is       14.7 secs

     total energy              =    -329.16154212 Ry
     Harris-Foulkes estimate   =    -329.16065082 Ry
     estimated scf accuracy    <       0.00047127 Ry

     total magnetization       =     1.91    -0.00    -0.00 Bohr mag/cell
     absolute magnetization    =     1.96 Bohr mag/cell

     iteration #  5     ecut=    40.00 Ry     beta= 0.30
     Davidson diagonalization with overlap
     ethr =  2.95E-06,  avg # of iterations =  2.9

     total cpu time spent up to now is       17.3 secs

     total energy              =    -329.16191886 Ry
     Harris-Foulkes estimate   =    -329.16164532 Ry
     estimated scf accuracy    <       0.00015612 Ry

     total magnetization       =     1.94    -0.00     0.00 Bohr mag/cell
     absolute magnetization    =     2.00 Bohr mag/cell

     iteration #  6     ecut=    40.00 Ry     beta= 0.30
     Davidson diagonalization with overlap
     ethr =  9.76E-07,  avg # of iterations =  2.0

     total cpu time spent up to now is       19.7 secs

     total energy              =    -329.16229137 Ry
     Harris-Foulkes estimate   =    -329.16210120 Ry
     estimated scf accuracy    <       0.00003190 Ry

     total magnetization       =     1.99    -0.00     0.00 Bohr mag/cell
     absolute magnetization    =     2.06 Bohr mag/cell

     iteration #  7     ecut=    40.00 Ry     beta= 0.30
     Davidson diagonalization with overlap
     ethr =  1.99E-07,  avg # of iterations =  2.1

     total cpu time spent up to now is       22.2 secs

     total energy              =    -329.16237629 Ry
     Harris-Foulkes estimate   =    -329.16230183 Ry
     estimated scf accuracy    <       0.00001486 Ry

     total magnetization       =     2.00     0.00     0.00 Bohr mag/cell
     absolute magnetization    =     2.07 Bohr mag/cell

     iteration #  8     ecut=    40.00 Ry     beta= 0.30
     Davidson diagonalization with overlap
     ethr =  9.28E-08,  avg # of iterations =  2.0

     total cpu time spent up to now is       24.5 secs

     total energy              =    -329.16240221 Ry
     Harris-Foulkes estimate   =    -329.16238027 Ry
     estimated scf accuracy    <       0.00000017 Ry

     total magnetization       =     2.00    -0.00     0.00 Bohr mag/cell
     absolute magnetization    =     2.07 Bohr mag/cell

     iteration #  9     ecut=    40.00 Ry     beta= 0.30
     Davidson diagonalization with overlap
     ethr =  1.05E-09,  avg # of iterations =  3.4

     total cpu time spent up to now is       27.7 secs

     total energy              =    -329.16241279 Ry
     Harris-Foulkes estimate   =    -329.16240240 Ry
     estimated scf accuracy    <       0.00000009 Ry

     total magnetization       =     2.00     0.00    -0.00 Bohr mag/cell
     absolute magnetization    =     2.07 Bohr mag/cell

     iteration # 10     ecut=    40.00 Ry     beta= 0.30
     Davidson diagonalization with overlap
     ethr =  5.67E-10,  avg # of iterations =  2.0

 ==============================================================================
     atom number    1 relative position :    0.0000   0.0000   0.0000
     charge :    14.302651
     magnetization :          2.011175   -0.000000    0.000000
     magnetization/charge:    0.140616   -0.000000    0.000000
     polar coord.: r, theta, phi [deg] :     2.011175   90.000000    0.000000

 ==============================================================================

     total cpu time spent up to now is       30.2 secs

     End of self-consistent calculation

     Number of k-points >= 100: set verbosity='high' to print the bands.

     the Fermi energy is    22.1069 ev

!    total energy              =    -329.16242490 Ry
     Harris-Foulkes estimate   =    -329.16241290 Ry
     estimated scf accuracy    <          6.2E-09 Ry

     total all-electron energy =     -2545.458960 Ry

     The total energy is the sum of the following terms:

     one-electron contribution =     -95.84387629 Ry
     hartree contribution      =      60.58356621 Ry
     xc contribution           =     -34.93970378 Ry
     ewald contribution        =    -182.82524148 Ry
     one-center paw contrib.   =     -76.13722052 Ry
     smearing contrib. (-TS)   =       0.00005096 Ry

     total magnetization       =     1.99     0.00     0.00 Bohr mag/cell
     absolute magnetization    =     2.07 Bohr mag/cell

     convergence has been achieved in  10 iterations

     Writing output data file fe.save/
 
     init_run     :      1.40s CPU      1.51s WALL (       1 calls)
     electrons    :     25.59s CPU     27.42s WALL (       1 calls)

     Called by init_run:
     wfcinit      :      0.60s CPU      0.64s WALL (       1 calls)
     potinit      :      0.70s CPU      0.75s WALL (       1 calls)
     hinit0       :      0.08s CPU      0.11s WALL (       1 calls)

     Called by electrons:
     c_bands      :     15.71s CPU     17.02s WALL (      11 calls)
     sum_band     :      2.88s CPU      3.19s WALL (      11 calls)
     v_of_rho     :      0.07s CPU      0.08s WALL (      11 calls)
     newd         :      0.10s CPU      0.11s WALL (      11 calls)
     PAW_pot      :      7.49s CPU      7.73s WALL (      11 calls)
     mix_rho      :      0.02s CPU      0.02s WALL (      11 calls)

     Called by c_bands:
     init_us_2    :      0.11s CPU      0.12s WALL (    2346 calls)
     cegterg      :     15.24s CPU     16.53s WALL (    1122 calls)

     Called by sum_band:
     sum_band:bec :      0.03s CPU      0.03s WALL (    1122 calls)
     addusdens    :      0.26s CPU      0.27s WALL (      11 calls)

     Called by *egterg:
     h_psi        :     11.27s CPU     12.25s WALL (    3905 calls)
     s_psi        :      0.23s CPU      0.25s WALL (    3905 calls)
     g_psi        :      0.03s CPU      0.03s WALL (    2681 calls)
     cdiaghg      :      2.83s CPU      3.04s WALL (    3701 calls)

     Called by h_psi:
     h_psi:pot    :     11.21s CPU     12.18s WALL (    3905 calls)
     h_psi:calbec :      0.28s CPU      0.31s WALL (    3905 calls)
     vloc_psi     :     10.62s CPU     11.53s WALL (    3905 calls)
     add_vuspsi   :      0.28s CPU      0.31s WALL (    3905 calls)

     General routines
     calbec       :      0.37s CPU      0.41s WALL (    5027 calls)
     fft          :      0.05s CPU      0.07s WALL (     397 calls)
     ffts         :      0.00s CPU      0.00s WALL (      88 calls)
     fftw         :     10.45s CPU     11.40s WALL (  311408 calls)
     interpolate  :      0.01s CPU      0.01s WALL (      44 calls)
 
     Parallel routines
     fft_scatt_xy :      1.05s CPU      1.14s WALL (  311893 calls)
     fft_scatt_yz :      3.37s CPU      3.73s WALL (  311893 calls)
 
     PWSCF        :     28.28s CPU     30.27s WALL

 
   This run was terminated on:   1:39:52  24Jul2019            

=------------------------------------------------------------------------------=
   JOB DONE.
=------------------------------------------------------------------------------=
