
     Program PWSCF v.6.4.1 starts on 24Jul2019 at 14:22:36 

     This program is part of the open-source Quantum ESPRESSO suite
     for quantum simulation of materials; please cite
         "P. Giannozzi et al., J. Phys.:Condens. Matter 21 395502 (2009);
         "P. Giannozzi et al., J. Phys.:Condens. Matter 29 465901 (2017);
          URL http://www.quantum-espresso.org", 
     in publications or presentations arising from this work. More details at
     http://www.quantum-espresso.org/quote

     Parallel version (MPI), running on     4 processors

     MPI processes distributed on     1 nodes
     R & G space division:  proc/nbgrp/npool/nimage =       4
     Reading input from graphene.1_vc_relax.in

     Current dimensions of program PWSCF are:
     Max number of different atomic species (ntypx) = 10
     Max number of k-points (npk) =  40000
     Max angular momentum in pseudopotentials (lmaxx) =  3
               file C.pbe-n-kjpaw_psl.1.0.0.UPF: wavefunction(s)  2S 2P renormalized

     Subspace diagonalization in iterative solution of the eigenvalue problem:
     a serial algorithm will be used

 
     Parallelization info
     --------------------
     sticks:   dense  smooth     PW     G-vecs:    dense   smooth      PW
     Min         148      60     21                23894     6058    1137
     Max         150      61     22                23908     6081    1150
     Sum         595     241     85                95599    24261    4575
 


     bravais-lattice index     =           12
     lattice parameter (alat)  =       4.6487  a.u.
     unit-cell volume          =     707.3387 (a.u.)^3
     number of atoms/cell      =            2
     number of atomic types    =            1
     number of electrons       =         8.00
     number of Kohn-Sham states=            8
     kinetic-energy cutoff     =      40.0000  Ry
     charge density cutoff     =     400.0000  Ry
     convergence threshold     =      1.0E-08
     mixing beta               =       0.3000
     number of iterations used =            8  plain     mixing
     Exchange-correlation      = SLA PW PBX PBC ( 1  4  3  4 0 0)
     nstep                     =           50


     celldm(1)=   4.648726  celldm(2)=   1.000000  celldm(3)=   8.130081
     celldm(4)=  -0.500000  celldm(5)=   0.000000  celldm(6)=   0.000000

     crystal axes: (cart. coord. in units of alat)
               a(1) = (   1.000000   0.000000   0.000000 )  
               a(2) = (  -0.500000   0.866025   0.000000 )  
               a(3) = (   0.000000   0.000000   8.130081 )  

     reciprocal axes: (cart. coord. in units 2 pi/alat)
               b(1) = (  1.000000  0.577350  0.000000 )  
               b(2) = (  0.000000  1.154701  0.000000 )  
               b(3) = (  0.000000  0.000000  0.123000 )  


     PseudoPot. # 1 for C  read from file:
     /home/bngjn/qe/SSSP_precision_pseudos/C.pbe-n-kjpaw_psl.1.0.0.UPF
     MD5 check sum: 5d2aebdfa2cae82b50a7e79e9516da0f
     Pseudo is Projector augmented-wave + core cor, Zval =  4.0
     Generated using "atomic" code by A. Dal Corso v.5.1
     Shape of augmentation charge: PSQ
     Using radial grid of 1073 points,  4 beta functions with: 
                l(1) =   0
                l(2) =   0
                l(3) =   1
                l(4) =   1
     Q(r) pseudized with 0 coefficients 


     atomic species   valence    mass     pseudopotential
        C              4.00    12.01070     C ( 1.00)

     24 Sym. Ops., with inversion, found (18 have fractional translation)



   Cartesian axes

     site n.     atom                  positions (alat units)
         1           C   tau(   1) = (   0.0000000   0.0000000   2.0325203  )
         2           C   tau(   2) = (  -0.0000000   0.5773503   2.0325203  )

     number of k points=    19  Marzari-Vanderbilt smearing, width (Ry)=  0.0001
                       cart. coord. in units 2pi/alat
        k(    1) = (   0.0000000   0.0000000   0.0000000), wk =   0.0138889
        k(    2) = (   0.0000000   0.0962250   0.0000000), wk =   0.0833333
        k(    3) = (   0.0000000   0.1924501   0.0000000), wk =   0.0833333
        k(    4) = (   0.0000000   0.2886751   0.0000000), wk =   0.0833333
        k(    5) = (   0.0000000   0.3849002   0.0000000), wk =   0.0833333
        k(    6) = (   0.0000000   0.4811252   0.0000000), wk =   0.0833333
        k(    7) = (   0.0000000  -0.5773503   0.0000000), wk =   0.0416667
        k(    8) = (   0.0833333   0.1443376   0.0000000), wk =   0.0833333
        k(    9) = (   0.0833333   0.2405626   0.0000000), wk =   0.1666667
        k(   10) = (   0.0833333   0.3367877   0.0000000), wk =   0.1666667
        k(   11) = (   0.0833333   0.4330127   0.0000000), wk =   0.1666667
        k(   12) = (   0.0833333   0.5292377   0.0000000), wk =   0.1666667
        k(   13) = (   0.1666667   0.2886751   0.0000000), wk =   0.0833333
        k(   14) = (   0.1666667   0.3849002   0.0000000), wk =   0.1666667
        k(   15) = (   0.1666667   0.4811252   0.0000000), wk =   0.1666667
        k(   16) = (   0.1666667   0.5773503   0.0000000), wk =   0.0833333
        k(   17) = (   0.2500000   0.4330127   0.0000000), wk =   0.0833333
        k(   18) = (   0.2500000   0.5292377   0.0000000), wk =   0.1666667
        k(   19) = (   0.3333333   0.5773503   0.0000000), wk =   0.0277778

     Dense  grid:    95599 G-vectors     FFT dimensions: (  30,  30, 250)

     Smooth grid:    24261 G-vectors     FFT dimensions: (  24,  24, 160)

     Estimated max dynamical RAM per process >      34.63 MB

     Estimated total dynamical RAM >     138.52 MB

     Check: negative core charge=   -0.000002

     Initial potential from superposition of free atoms

     starting charge    7.99992, renormalised to    8.00000

     negative rho (up, down):  1.059E-04 0.000E+00
     Starting wfcs are    8 randomized atomic wfcs
     Checking if some PAW data can be deallocated... 

     total cpu time spent up to now is        1.6 secs

     Self-consistent Calculation

     iteration #  1     ecut=    40.00 Ry     beta= 0.30
     Davidson diagonalization with overlap
     ethr =  1.00E-02,  avg # of iterations =  5.2

     negative rho (up, down):  1.065E-04 0.000E+00

     total cpu time spent up to now is        2.6 secs

     total energy              =     -36.90789679 Ry
     Harris-Foulkes estimate   =     -36.97898858 Ry
     estimated scf accuracy    <       0.20576432 Ry

     iteration #  2     ecut=    40.00 Ry     beta= 0.30
     Davidson diagonalization with overlap
     ethr =  2.57E-03,  avg # of iterations =  1.4

     negative rho (up, down):  2.633E-04 0.000E+00

     total cpu time spent up to now is        3.3 secs

     total energy              =     -36.87433165 Ry
     Harris-Foulkes estimate   =     -36.91391883 Ry
     estimated scf accuracy    <       0.06820425 Ry

     iteration #  3     ecut=    40.00 Ry     beta= 0.30
     Davidson diagonalization with overlap
     ethr =  8.53E-04,  avg # of iterations =  6.8

     negative rho (up, down):  2.744E-04 0.000E+00

     total cpu time spent up to now is        4.7 secs

     total energy              =     -36.88593980 Ry
     Harris-Foulkes estimate   =     -36.88591248 Ry
     estimated scf accuracy    <       0.00136867 Ry

     iteration #  4     ecut=    40.00 Ry     beta= 0.30
     Davidson diagonalization with overlap
     ethr =  1.71E-05,  avg # of iterations =  4.5

     negative rho (up, down):  2.224E-04 0.000E+00

     total cpu time spent up to now is        5.9 secs

     total energy              =     -36.88550592 Ry
     Harris-Foulkes estimate   =     -36.88665221 Ry
     estimated scf accuracy    <       0.00176355 Ry

     iteration #  5     ecut=    40.00 Ry     beta= 0.30
     Davidson diagonalization with overlap
     ethr =  1.71E-05,  avg # of iterations =  3.1

     negative rho (up, down):  1.794E-04 0.000E+00

     total cpu time spent up to now is        6.8 secs

     total energy              =     -36.88581891 Ry
     Harris-Foulkes estimate   =     -36.88581869 Ry
     estimated scf accuracy    <       0.00000179 Ry

     iteration #  6     ecut=    40.00 Ry     beta= 0.30
     Davidson diagonalization with overlap
     ethr =  2.24E-08,  avg # of iterations =  3.6

     negative rho (up, down):  1.554E-04 0.000E+00

     total cpu time spent up to now is        7.7 secs

     total energy              =     -36.88581987 Ry
     Harris-Foulkes estimate   =     -36.88581963 Ry
     estimated scf accuracy    <       0.00000027 Ry

     iteration #  7     ecut=    40.00 Ry     beta= 0.30
     Davidson diagonalization with overlap
     ethr =  3.42E-09,  avg # of iterations =  2.0

     negative rho (up, down):  1.415E-04 0.000E+00

     total cpu time spent up to now is        8.5 secs

     total energy              =     -36.88581989 Ry
     Harris-Foulkes estimate   =     -36.88581991 Ry
     estimated scf accuracy    <       0.00000002 Ry

     iteration #  8     ecut=    40.00 Ry     beta= 0.30
     Davidson diagonalization with overlap
     ethr =  2.76E-10,  avg # of iterations =  2.0

     negative rho (up, down):  1.258E-04 0.000E+00

     total cpu time spent up to now is        9.3 secs

     End of self-consistent calculation

          k = 0.0000 0.0000 0.0000 (  3053 PWs)   bands (ev):

   -21.9107  -9.9945  -5.3726  -5.3726   0.8525   1.5197   1.6487   2.6598

          k = 0.0000 0.0962 0.0000 (  3034 PWs)   bands (ev):

   -21.7460  -9.7973  -6.0255  -5.7137   1.0770   1.7474   1.8778   2.8867

          k = 0.0000 0.1925 0.0000 (  3042 PWs)   bands (ev):

   -21.2539  -9.2111  -7.6699  -6.5126   1.7503   2.4295   2.5652   3.5662

          k = 0.0000 0.2887 0.0000 (  3030 PWs)   bands (ev):

   -20.4400  -9.7772  -8.2551  -7.3991   2.8704   3.5562   3.7106   4.6532

          k = 0.0000 0.3849 0.0000 (  3024 PWs)   bands (ev):

   -19.3164 -11.9901  -8.1380  -6.9796   2.6178   4.4269   5.1682   5.3021

          k = 0.0000 0.4811 0.0000 (  3034 PWs)   bands (ev):

   -17.9138 -14.1007  -8.6142  -5.5482   0.4682   5.2142   6.4492   7.1913

          k = 0.0000-0.5774 0.0000 (  3036 PWs)   bands (ev):

   -16.6378 -15.6207  -8.7778  -4.6979  -0.6378   5.1364   8.7739   8.9165

          k = 0.0833 0.1443 0.0000 (  3043 PWs)   bands (ev):

   -21.4176  -9.4056  -7.0630  -6.3967   1.5261   2.2024   2.3361   3.3401

          k = 0.0833 0.2406 0.0000 (  3029 PWs)   bands (ev):

   -20.7646  -8.7795  -8.6332  -7.4020   2.4236   3.1099   3.2527   4.2432

          k = 0.0833 0.3368 0.0000 (  3026 PWs)   bands (ev):

   -19.7958 -10.8617  -8.2941  -7.5110   3.6357   3.7654   4.4895   4.6271

          k = 0.0833 0.4330 0.0000 (  3023 PWs)   bands (ev):

   -18.5297 -12.9945  -8.9330  -6.1232   1.4226   5.5292   6.0641   6.2808

          k = 0.0833 0.5292 0.0000 (  3021 PWs)   bands (ev):

   -17.0414 -14.9473  -9.2634  -4.8056  -0.3586   5.8770   7.7569   8.4922

          k = 0.1667 0.2887 0.0000 (  3017 PWs)   bands (ev):

   -19.9566 -10.1132  -8.7737  -7.6907   3.5437   4.0994   4.2398   4.3986

          k = 0.1667 0.3849 0.0000 (  3024 PWs)   bands (ev):

   -18.8440 -11.8485  -9.8356  -6.4305   2.1384   5.1032   5.8067   6.0020

          k = 0.1667 0.4811 0.0000 (  3015 PWs)   bands (ev):

   -17.4614 -13.7696 -10.4137  -4.9950   0.2130   7.0777   7.7525   7.7913

          k = 0.1667 0.5774 0.0000 (  2996 PWs)   bands (ev):

   -16.2154 -15.2174 -10.5992  -4.0962  -0.8629   7.6915   9.2907   9.3447

          k = 0.2500 0.4330 0.0000 (  3009 PWs)   bands (ev):

   -17.6101 -12.8844 -11.3300  -5.0798   0.5144   6.8650   7.4773   7.8328

          k = 0.2500 0.5292 0.0000 (  2995 PWs)   bands (ev):

   -16.1796 -14.3148 -12.0403  -3.6853  -1.0158   8.5611   8.9804   9.9545

          k = 0.3333 0.5774 0.0000 (  2967 PWs)   bands (ev):

   -14.9545 -14.9545 -12.9481  -2.3210  -2.3210   8.3054  10.6032  10.6032

     the Fermi energy is    -2.3208 ev

!    total energy              =     -36.88581993 Ry
     Harris-Foulkes estimate   =     -36.88581989 Ry
     estimated scf accuracy    <          2.6E-09 Ry

     total all-electron energy =      -152.414016 Ry

     The total energy is the sum of the following terms:

     one-electron contribution =    -224.86553802 Ry
     hartree contribution      =     113.87398238 Ry
     xc contribution           =      -9.28438121 Ry
     ewald contribution        =      95.72438390 Ry
     one-center paw contrib.   =     -12.33426606 Ry
     smearing contrib. (-TS)   =      -0.00000091 Ry

     convergence has been achieved in   8 iterations

     negative rho (up, down):  1.258E-04 0.000E+00

     Forces acting on atoms (cartesian axes, Ry/au):

     atom    1 type  1   force =    -0.00000000   -0.00000000    0.00000000
     atom    2 type  1   force =     0.00000000    0.00000000    0.00000000

     Total force =     0.000000     Total SCF correction =     0.000000


     Computing stress (Cartesian axis) and pressure


     negative rho (up, down):  1.258E-04 0.000E+00
          total   stress  (Ry/bohr**3)                   (kbar)     P=    2.82
   0.00003353   0.00000000   0.00000000          4.93      0.00      0.00
   0.00000000   0.00003353  -0.00000000          0.00      4.93     -0.00
   0.00000000   0.00000000  -0.00000960          0.00      0.00     -1.41


     BFGS Geometry Optimization

     number of scf cycles    =   1
     number of bfgs steps    =   0

     enthalpy new            =     -36.8858199251 Ry

     new trust radius        =       0.0044584515 bohr
     new conv_thr            =       0.0000000100 Ry

     new unit-cell volume =    708.52501 a.u.^3 (   104.99257 Ang^3 )
     density =      0.37992 g/cm^3

CELL_PARAMETERS (alat=  4.64872629)
   1.000838186   0.000000000   0.000000000
  -0.500419093   0.866751294   0.000000000
   0.000000000   0.000000000   8.130081301

ATOMIC_POSITIONS (crystal)
C       -0.000000000  -0.000000000   0.250000000
C        0.333333333   0.666666667   0.250000000



     Writing output data file graphene.save/
     NEW-OLD atomic charge density approx. for the potential

     Check: negative core charge=   -0.000002

     negative rho (up, down):  1.269E-04 0.000E+00
     extrapolated charge    8.01339, renormalised to    8.00000

     total cpu time spent up to now is       12.0 secs

     Self-consistent Calculation

     iteration #  1     ecut=    40.00 Ry     beta= 0.30
     Davidson diagonalization with overlap
     ethr =  1.00E-06,  avg # of iterations =  6.1

     negative rho (up, down):  1.263E-04 0.000E+00

     total cpu time spent up to now is       13.2 secs

     total energy              =     -36.88577658 Ry
     Harris-Foulkes estimate   =     -36.52102317 Ry
     estimated scf accuracy    <       0.00004680 Ry

     iteration #  2     ecut=    40.00 Ry     beta= 0.30
     Davidson diagonalization with overlap
     ethr =  5.85E-07,  avg # of iterations =  5.6

     negative rho (up, down):  1.267E-04 0.000E+00

     total cpu time spent up to now is       14.3 secs

     total energy              =     -36.88585365 Ry
     Harris-Foulkes estimate   =     -36.88585558 Ry
     estimated scf accuracy    <       0.00000669 Ry

     iteration #  3     ecut=    40.00 Ry     beta= 0.30
     Davidson diagonalization with overlap
     ethr =  8.37E-08,  avg # of iterations =  1.0

     negative rho (up, down):  1.270E-04 0.000E+00

     total cpu time spent up to now is       15.0 secs

     total energy              =     -36.88585231 Ry
     Harris-Foulkes estimate   =     -36.88585381 Ry
     estimated scf accuracy    <       0.00000302 Ry

     iteration #  4     ecut=    40.00 Ry     beta= 0.30
     Davidson diagonalization with overlap
     ethr =  3.78E-08,  avg # of iterations =  2.0

     negative rho (up, down):  1.272E-04 0.000E+00

     total cpu time spent up to now is       15.8 secs

     total energy              =     -36.88585238 Ry
     Harris-Foulkes estimate   =     -36.88585255 Ry
     estimated scf accuracy    <       0.00000035 Ry

     iteration #  5     ecut=    40.00 Ry     beta= 0.30
     Davidson diagonalization with overlap
     ethr =  4.32E-09,  avg # of iterations =  2.0

     negative rho (up, down):  1.273E-04 0.000E+00

     total cpu time spent up to now is       16.6 secs

     total energy              =     -36.88585242 Ry
     Harris-Foulkes estimate   =     -36.88585241 Ry
     estimated scf accuracy    <       0.00000004 Ry

     iteration #  6     ecut=    40.00 Ry     beta= 0.30
     Davidson diagonalization with overlap
     ethr =  4.70E-10,  avg # of iterations =  1.0

     negative rho (up, down):  1.274E-04 0.000E+00

     total cpu time spent up to now is       17.4 secs

     total energy              =     -36.88585239 Ry
     Harris-Foulkes estimate   =     -36.88585242 Ry
     estimated scf accuracy    <       0.00000004 Ry

     iteration #  7     ecut=    40.00 Ry     beta= 0.30
     Davidson diagonalization with overlap
     ethr =  4.70E-10,  avg # of iterations =  2.0

     negative rho (up, down):  1.275E-04 0.000E+00

     total cpu time spent up to now is       18.2 secs

     End of self-consistent calculation

          k = 0.0000 0.0000 0.0000 (  3053 PWs)   bands (ev):

   -21.8991  -9.9862  -5.3822  -5.3822   0.8515   1.5190   1.6485   2.6592

          k =-0.0000 0.0961 0.0000 (  3034 PWs)   bands (ev):

   -21.7347  -9.7895  -6.0344  -5.7223   1.0756   1.7463   1.8773   2.8857

          k =-0.0000 0.1923 0.0000 (  3042 PWs)   bands (ev):

   -21.2432  -9.2045  -7.6770  -6.5193   1.7478   2.4272   2.5635   3.5640

          k =-0.0000 0.2884 0.0000 (  3030 PWs)   bands (ev):

   -20.4306  -9.7815  -8.2505  -7.4037   2.8660   3.5518   3.7071   4.6469

          k =-0.0000 0.3846 0.0000 (  3024 PWs)   bands (ev):

   -19.3088 -11.9913  -8.1409  -6.9777   2.5991   4.4197   5.1610   5.2945

          k =-0.0000 0.4807 0.0000 (  3034 PWs)   bands (ev):

   -17.9087 -14.0985  -8.6161  -5.5497   0.4551   5.1813   6.4384   7.3685

          k = 0.0000-0.5769 0.0000 (  3036 PWs)   bands (ev):

   -16.6377 -15.6131  -8.7793  -4.7017  -0.6477   5.1029   8.7590   8.9019

          k = 0.0833 0.1442 0.0000 (  3043 PWs)   bands (ev):

   -21.4068  -9.3985  -7.0710  -6.4036   1.5239   2.2004   2.3348   3.3383

          k = 0.0833 0.2404 0.0000 (  3029 PWs)   bands (ev):

   -20.7547  -8.7856  -8.6278  -7.4066   2.4199   3.1064   3.2499   4.2399

          k = 0.0833 0.3365 0.0000 (  3026 PWs)   bands (ev):

   -19.7874 -10.8649  -8.2969  -7.5079   3.6142   3.7595   4.4832   4.6221

          k = 0.0833 0.4327 0.0000 (  3023 PWs)   bands (ev):

   -18.5234 -12.9944  -8.9347  -6.1233   1.4067   5.5195   6.0316   6.2716

          k = 0.0833 0.5288 0.0000 (  3021 PWs)   bands (ev):

   -17.0384 -14.9432  -9.2645  -4.8089  -0.3696   5.8429   7.7439   8.7383

          k = 0.1665 0.2884 0.0000 (  3017 PWs)   bands (ev):

   -19.9480 -10.1184  -8.7751  -7.6873   3.5382   4.0757   4.2343   4.3939

          k = 0.1665 0.3846 0.0000 (  3024 PWs)   bands (ev):

   -18.8371 -11.8512  -9.8353  -6.4298   2.1198   5.0950   5.7983   5.9946

          k = 0.1665 0.4807 0.0000 (  3015 PWs)   bands (ev):

   -17.4570 -13.7686 -10.4128  -4.9977   0.1995   7.0657   7.7403   7.7561

          k = 0.1665 0.5769 0.0000 (  2996 PWs)   bands (ev):

   -16.2157 -15.2115 -10.5982  -4.1013  -0.8735   7.6552   9.2739   9.3283

          k = 0.2498 0.4327 0.0000 (  3009 PWs)   bands (ev):

   -17.6053 -12.8872 -11.3257  -5.0822   0.4994   6.8537   7.4655   7.8223

          k = 0.2498 0.5288 0.0000 (  2995 PWs)   bands (ev):

   -16.1779 -14.3143 -12.0352  -3.6910  -1.0271   8.5471   8.9647   9.9181

          k = 0.3331 0.5769 0.0000 (  2967 PWs)   bands (ev):

   -14.9557 -14.9557 -12.9381  -2.3297  -2.3297   8.2929  10.5772  10.5772

     the Fermi energy is    -2.3295 ev

!    total energy              =     -36.88585240 Ry
     Harris-Foulkes estimate   =     -36.88585240 Ry
     estimated scf accuracy    <          7.4E-10 Ry

     total all-electron energy =      -152.414048 Ry

     The total energy is the sum of the following terms:

     one-electron contribution =    -224.48170276 Ry
     hartree contribution      =     113.67956452 Ry
     xc contribution           =      -9.28057620 Ry
     ewald contribution        =      95.53096281 Ry
     one-center paw contrib.   =     -12.33409987 Ry
     smearing contrib. (-TS)   =      -0.00000091 Ry

     convergence has been achieved in   7 iterations

     negative rho (up, down):  1.275E-04 0.000E+00

     Forces acting on atoms (cartesian axes, Ry/au):

     atom    1 type  1   force =     0.00000000    0.00000000    0.00000000
     atom    2 type  1   force =     0.00000000    0.00000000    0.00000000

     Total force =     0.000000     Total SCF correction =     0.000000


     Computing stress (Cartesian axis) and pressure


     negative rho (up, down):  1.275E-04 0.000E+00
          total   stress  (Ry/bohr**3)                   (kbar)     P=    1.60
   0.00002128  -0.00000000   0.00000000          3.13     -0.00      0.00
  -0.00000000   0.00002128  -0.00000000         -0.00      3.13     -0.00
  -0.00000000   0.00000000  -0.00000992         -0.00      0.00     -1.46


     number of scf cycles    =   2
     number of bfgs steps    =   1

     enthalpy old            =     -36.8858199251 Ry
     enthalpy new            =     -36.8858524046 Ry

     CASE: enthalpy_new < enthalpy_old

     new trust radius        =       0.0049042967 bohr
     new conv_thr            =            1.0E-10 Ry

     new unit-cell volume =    709.83104 a.u.^3 (   105.18611 Ang^3 )
     density =      0.37922 g/cm^3

CELL_PARAMETERS (alat=  4.64872629)
   1.001760190   0.000000000   0.000000000
  -0.500880095   0.867549773   0.000000000
   0.000000000   0.000000000   8.130081301

ATOMIC_POSITIONS (crystal)
C       -0.000000000  -0.000000000   0.250000000
C        0.333333333   0.666666667   0.250000000



     Writing output data file graphene.save/
     NEW-OLD atomic charge density approx. for the potential

     Check: negative core charge=   -0.000002

     negative rho (up, down):  1.288E-04 0.000E+00
     extrapolated charge    8.01472, renormalised to    8.00000

     total cpu time spent up to now is       20.9 secs

     Self-consistent Calculation

     iteration #  1     ecut=    40.00 Ry     beta= 0.30
     Davidson diagonalization with overlap
     ethr =  1.00E-06,  avg # of iterations =  5.6

     negative rho (up, down):  1.281E-04 0.000E+00

     total cpu time spent up to now is       22.1 secs

     total energy              =     -36.88577995 Ry
     Harris-Foulkes estimate   =     -36.48569190 Ry
     estimated scf accuracy    <       0.00005614 Ry

     iteration #  2     ecut=    40.00 Ry     beta= 0.30
     Davidson diagonalization with overlap
     ethr =  7.02E-07,  avg # of iterations =  5.7

     negative rho (up, down):  1.284E-04 0.000E+00

     total cpu time spent up to now is       23.2 secs

     total energy              =     -36.88587294 Ry
     Harris-Foulkes estimate   =     -36.88587529 Ry
     estimated scf accuracy    <       0.00000818 Ry

     iteration #  3     ecut=    40.00 Ry     beta= 0.30
     Davidson diagonalization with overlap
     ethr =  1.02E-07,  avg # of iterations =  1.0

     negative rho (up, down):  1.288E-04 0.000E+00

     total cpu time spent up to now is       23.9 secs

     total energy              =     -36.88587129 Ry
     Harris-Foulkes estimate   =     -36.88587314 Ry
     estimated scf accuracy    <       0.00000370 Ry

     iteration #  4     ecut=    40.00 Ry     beta= 0.30
     Davidson diagonalization with overlap
     ethr =  4.62E-08,  avg # of iterations =  2.0

     negative rho (up, down):  1.290E-04 0.000E+00

     total cpu time spent up to now is       24.8 secs

     total energy              =     -36.88587140 Ry
     Harris-Foulkes estimate   =     -36.88587159 Ry
     estimated scf accuracy    <       0.00000041 Ry

     iteration #  5     ecut=    40.00 Ry     beta= 0.30
     Davidson diagonalization with overlap
     ethr =  5.10E-09,  avg # of iterations =  1.6

     negative rho (up, down):  1.292E-04 0.000E+00

     total cpu time spent up to now is       25.5 secs

     total energy              =     -36.88587143 Ry
     Harris-Foulkes estimate   =     -36.88587143 Ry
     estimated scf accuracy    <       0.00000006 Ry

     iteration #  6     ecut=    40.00 Ry     beta= 0.30
     Davidson diagonalization with overlap
     ethr =  6.97E-10,  avg # of iterations =  1.0

     negative rho (up, down):  1.293E-04 0.000E+00

     total cpu time spent up to now is       26.3 secs

     total energy              =     -36.88587140 Ry
     Harris-Foulkes estimate   =     -36.88587143 Ry
     estimated scf accuracy    <       0.00000005 Ry

     iteration #  7     ecut=    40.00 Ry     beta= 0.30
     Davidson diagonalization with overlap
     ethr =  6.19E-10,  avg # of iterations =  2.0

     negative rho (up, down):  1.293E-04 0.000E+00

     total cpu time spent up to now is       27.1 secs

     total energy              =     -36.88587141 Ry
     Harris-Foulkes estimate   =     -36.88587141 Ry
     estimated scf accuracy    <          7.3E-10 Ry

     iteration #  8     ecut=    40.00 Ry     beta= 0.30
     Davidson diagonalization with overlap
     ethr =  9.14E-12,  avg # of iterations =  1.4

     negative rho (up, down):  1.293E-04 0.000E+00

     total cpu time spent up to now is       27.9 secs

     total energy              =     -36.88587141 Ry
     Harris-Foulkes estimate   =     -36.88587141 Ry
     estimated scf accuracy    <          4.4E-10 Ry

     iteration #  9     ecut=    40.00 Ry     beta= 0.30
     Davidson diagonalization with overlap
     ethr =  5.51E-12,  avg # of iterations =  2.0

     negative rho (up, down):  1.294E-04 0.000E+00

     total cpu time spent up to now is       28.7 secs

     End of self-consistent calculation

          k = 0.0000 0.0000 0.0000 (  3053 PWs)   bands (ev):

   -21.8875  -9.9780  -5.3939  -5.3939   0.8495   1.5163   1.6458   2.6566

          k =-0.0000 0.0961 0.0000 (  3034 PWs)   bands (ev):

   -21.7233  -9.7817  -6.0454  -5.7330   1.0732   1.7432   1.8741   2.8827

          k =-0.0000 0.1921 0.0000 (  3042 PWs)   bands (ev):

   -21.2327  -9.1980  -7.6860  -6.5278   1.7442   2.4228   2.5591   3.5597

          k =-0.0000 0.2882 0.0000 (  3030 PWs)   bands (ev):

   -20.4214  -9.7875  -8.2462  -7.4099   2.8604   3.5452   3.7005   4.6376

          k =-0.0000 0.3842 0.0000 (  3024 PWs)   bands (ev):

   -19.3015 -11.9938  -8.1453  -6.9765   2.5776   4.4111   5.1514   5.2816

          k =-0.0000 0.4803 0.0000 (  3034 PWs)   bands (ev):

   -17.9042 -14.0972  -8.6193  -5.5522   0.4399   5.1440   6.4258   7.3551

          k = 0.0000-0.5763 0.0000 (  3036 PWs)   bands (ev):

   -16.6386 -15.6060  -8.7822  -4.7067  -0.6594   5.0651   8.7420   8.8851

          k = 0.0832 0.1441 0.0000 (  3043 PWs)   bands (ev):

   -21.3959  -9.3916  -7.0810  -6.4124   1.5208   2.1965   2.3308   3.3344

          k = 0.0832 0.2401 0.0000 (  3029 PWs)   bands (ev):

   -20.7450  -8.7934  -8.6226  -7.4128   2.4151   3.1007   3.2442   4.2343

          k = 0.0832 0.3362 0.0000 (  3026 PWs)   bands (ev):

   -19.7792 -10.8695  -8.3012  -7.5054   3.5895   3.7522   4.4745   4.6138

          k = 0.0832 0.4323 0.0000 (  3023 PWs)   bands (ev):

   -18.5176 -12.9954  -8.9376  -6.1242   1.3883   5.5080   5.9949   6.2599

          k = 0.0832 0.5283 0.0000 (  3021 PWs)   bands (ev):

   -17.0363 -14.9397  -9.2667  -4.8135  -0.3827   5.8043   7.7291   8.7224

          k = 0.1664 0.2882 0.0000 (  3017 PWs)   bands (ev):

   -19.9395 -10.1253  -8.7777  -7.6843   3.5313   4.0486   4.2265   4.3861

          k = 0.1664 0.3842 0.0000 (  3024 PWs)   bands (ev):

   -18.8306 -11.8553  -9.8361  -6.4299   2.0984   5.0853   5.7875   5.9838

          k = 0.1664 0.4803 0.0000 (  3015 PWs)   bands (ev):

   -17.4533 -13.7688 -10.4130  -5.0015   0.1836   7.0518   7.7162   7.7255

          k = 0.1664 0.5763 0.0000 (  2996 PWs)   bands (ev):

   -16.2170 -15.2061 -10.5981  -4.1077  -0.8860   7.6142   9.2549   9.3098

          k = 0.2496 0.4323 0.0000 (  3009 PWs)   bands (ev):

   -17.6012 -12.8915 -11.3221  -5.0857   0.4820   6.8406   7.4514   7.8080

          k = 0.2496 0.5283 0.0000 (  2995 PWs)   bands (ev):

   -16.1772 -14.3150 -12.0307  -3.6982  -1.0405   8.5311   8.9469   9.8767

          k = 0.3327 0.5763 0.0000 (  2967 PWs)   bands (ev):

   -14.9581 -14.9581 -12.9283  -2.3402  -2.3402   8.2785  10.5480  10.5480

     the Fermi energy is    -2.3401 ev

!    total energy              =     -36.88587141 Ry
     Harris-Foulkes estimate   =     -36.88587141 Ry
     estimated scf accuracy    <          4.8E-11 Ry

     total all-electron energy =      -152.414067 Ry

     The total energy is the sum of the following terms:

     one-electron contribution =    -224.06093231 Ry
     hartree contribution      =     113.46663206 Ry
     xc contribution           =      -9.27644042 Ry
     ewald contribution        =      95.31879216 Ry
     one-center paw contrib.   =     -12.33392199 Ry
     smearing contrib. (-TS)   =      -0.00000091 Ry

     convergence has been achieved in   9 iterations

     negative rho (up, down):  1.294E-04 0.000E+00

     Forces acting on atoms (cartesian axes, Ry/au):

     atom    1 type  1   force =     0.00000000    0.00000000    0.00000000
     atom    2 type  1   force =     0.00000000    0.00000000    0.00000000

     Total force =     0.000000     Total SCF correction =     0.000000


     Computing stress (Cartesian axis) and pressure


     negative rho (up, down):  1.294E-04 0.000E+00
          total   stress  (Ry/bohr**3)                   (kbar)     P=    0.29
   0.00000788   0.00000000   0.00000000          1.16      0.00      0.00
   0.00000000   0.00000788  -0.00000000          0.00      1.16     -0.00
   0.00000000  -0.00000000  -0.00000979          0.00     -0.00     -1.44


     number of scf cycles    =   3
     number of bfgs steps    =   2

     enthalpy old            =     -36.8858524046 Ry
     enthalpy new            =     -36.8858714127 Ry

     CASE: enthalpy_new < enthalpy_old

     new trust radius        =       0.0028903951 bohr
     new conv_thr            =            1.0E-10 Ry

     new unit-cell volume =    710.60133 a.u.^3 (   105.30025 Ang^3 )
     density =      0.37881 g/cm^3

CELL_PARAMETERS (alat=  4.64872629)
   1.002303583   0.000000000   0.000000000
  -0.501151791   0.868020365   0.000000000
   0.000000000   0.000000000   8.130081301

ATOMIC_POSITIONS (crystal)
C       -0.000000000  -0.000000000   0.250000000
C        0.333333333   0.666666667   0.250000000



     Writing output data file graphene.save/
     NEW-OLD atomic charge density approx. for the potential

     Check: negative core charge=   -0.000002

     negative rho (up, down):  1.301E-04 0.000E+00
     extrapolated charge    8.00867, renormalised to    8.00000

     total cpu time spent up to now is       31.4 secs

     Self-consistent Calculation

     iteration #  1     ecut=    40.00 Ry     beta= 0.30
     Davidson diagonalization with overlap
     ethr =  1.00E-06,  avg # of iterations =  4.7

     negative rho (up, down):  1.297E-04 0.000E+00

     total cpu time spent up to now is       32.5 secs

     total energy              =     -36.88584300 Ry
     Harris-Foulkes estimate   =     -36.65045125 Ry
     estimated scf accuracy    <       0.00001939 Ry

     iteration #  2     ecut=    40.00 Ry     beta= 0.30
     Davidson diagonalization with overlap
     ethr =  2.42E-07,  avg # of iterations =  5.0

     negative rho (up, down):  1.299E-04 0.000E+00

     total cpu time spent up to now is       33.6 secs

     total energy              =     -36.88587497 Ry
     Harris-Foulkes estimate   =     -36.88587576 Ry
     estimated scf accuracy    <       0.00000277 Ry

     iteration #  3     ecut=    40.00 Ry     beta= 0.30
     Davidson diagonalization with overlap
     ethr =  3.46E-08,  avg # of iterations =  1.0

     negative rho (up, down):  1.302E-04 0.000E+00

     total cpu time spent up to now is       34.4 secs

     total energy              =     -36.88587439 Ry
     Harris-Foulkes estimate   =     -36.88587503 Ry
     estimated scf accuracy    <       0.00000125 Ry

     iteration #  4     ecut=    40.00 Ry     beta= 0.30
     Davidson diagonalization with overlap
     ethr =  1.57E-08,  avg # of iterations =  2.0

     negative rho (up, down):  1.303E-04 0.000E+00

     total cpu time spent up to now is       35.1 secs

     total energy              =     -36.88587444 Ry
     Harris-Foulkes estimate   =     -36.88587450 Ry
     estimated scf accuracy    <       0.00000012 Ry

     iteration #  5     ecut=    40.00 Ry     beta= 0.30
     Davidson diagonalization with overlap
     ethr =  1.45E-09,  avg # of iterations =  2.0

     negative rho (up, down):  1.304E-04 0.000E+00

     total cpu time spent up to now is       35.9 secs

     total energy              =     -36.88587446 Ry
     Harris-Foulkes estimate   =     -36.88587445 Ry
     estimated scf accuracy    <       0.00000001 Ry

     iteration #  6     ecut=    40.00 Ry     beta= 0.30
     Davidson diagonalization with overlap
     ethr =  1.37E-10,  avg # of iterations =  1.7

     negative rho (up, down):  1.304E-04 0.000E+00

     total cpu time spent up to now is       36.7 secs

     total energy              =     -36.88587445 Ry
     Harris-Foulkes estimate   =     -36.88587446 Ry
     estimated scf accuracy    <       0.00000003 Ry

     iteration #  7     ecut=    40.00 Ry     beta= 0.30
     Davidson diagonalization with overlap
     ethr =  1.37E-10,  avg # of iterations =  2.0

     negative rho (up, down):  1.304E-04 0.000E+00

     total cpu time spent up to now is       37.6 secs

     total energy              =     -36.88587445 Ry
     Harris-Foulkes estimate   =     -36.88587445 Ry
     estimated scf accuracy    <          3.3E-10 Ry

     iteration #  8     ecut=    40.00 Ry     beta= 0.30
     Davidson diagonalization with overlap
     ethr =  4.13E-12,  avg # of iterations =  1.0

     negative rho (up, down):  1.305E-04 0.000E+00

     total cpu time spent up to now is       38.3 secs

     total energy              =     -36.88587446 Ry
     Harris-Foulkes estimate   =     -36.88587445 Ry
     estimated scf accuracy    <          1.9E-10 Ry

     iteration #  9     ecut=    40.00 Ry     beta= 0.30
     Davidson diagonalization with overlap
     ethr =  2.32E-12,  avg # of iterations =  2.0

     negative rho (up, down):  1.305E-04 0.000E+00

     total cpu time spent up to now is       39.2 secs

     End of self-consistent calculation

          k = 0.0000 0.0000 0.0000 (  3053 PWs)   bands (ev):

   -21.8803  -9.9730  -5.4004  -5.4004   0.8484   1.5147   1.6441   2.6551

          k =-0.0000 0.0960 0.0000 (  3034 PWs)   bands (ev):

   -21.7164  -9.7769  -6.0515  -5.7390   1.0719   1.7413   1.8722   2.8810

          k =-0.0000 0.1920 0.0000 (  3042 PWs)   bands (ev):

   -21.2262  -9.1940  -7.6910  -6.5325   1.7421   2.4202   2.5564   3.5572

          k =-0.0000 0.2880 0.0000 (  3030 PWs)   bands (ev):

   -20.4157  -9.7907  -8.2435  -7.4132   2.8571   3.5413   3.6966   4.6318

          k =-0.0000 0.3840 0.0000 (  3024 PWs)   bands (ev):

   -19.2970 -11.9950  -8.1476  -6.9756   2.5651   4.4060   5.1456   5.2742

          k =-0.0000 0.4800 0.0000 (  3034 PWs)   bands (ev):

   -17.9013 -14.0962  -8.6210  -5.5535   0.4312   5.1224   6.4185   7.3473

          k = 0.0000-0.5760 0.0000 (  3036 PWs)   bands (ev):

   -16.6390 -15.6015  -8.7836  -4.7095  -0.6661   5.0431   8.7321   8.8753

          k = 0.0831 0.1440 0.0000 (  3043 PWs)   bands (ev):

   -21.3893  -9.3874  -7.0866  -6.4172   1.5189   2.1942   2.3284   3.3322

          k = 0.0831 0.2400 0.0000 (  3029 PWs)   bands (ev):

   -20.7389  -8.7977  -8.6194  -7.4162   2.4123   3.0974   3.2408   4.2310

          k = 0.0831 0.3360 0.0000 (  3026 PWs)   bands (ev):

   -19.7742 -10.8719  -8.3035  -7.5038   3.5752   3.7480   4.4694   4.6089

          k = 0.0831 0.4320 0.0000 (  3023 PWs)   bands (ev):

   -18.5139 -12.9957  -8.9391  -6.1246   1.3776   5.5012   5.9735   6.2530

          k = 0.0831 0.5280 0.0000 (  3021 PWs)   bands (ev):

   -17.0348 -14.9374  -9.2678  -4.8160  -0.3902   5.7819   7.7204   8.7129

          k = 0.1663 0.2880 0.0000 (  3017 PWs)   bands (ev):

   -19.9343 -10.1291  -8.7790  -7.6824   3.5273   4.0330   4.2219   4.3814

          k = 0.1663 0.3840 0.0000 (  3024 PWs)   bands (ev):

   -18.8265 -11.8574  -9.8362  -6.4298   2.0860   5.0796   5.7811   5.9774

          k = 0.1663 0.4800 0.0000 (  3015 PWs)   bands (ev):

   -17.4508 -13.7686 -10.4128  -5.0035   0.1745   7.0437   7.6930   7.7168

          k = 0.1663 0.5760 0.0000 (  2996 PWs)   bands (ev):

   -16.2175 -15.2027 -10.5978  -4.1112  -0.8932   7.5904   9.2437   9.2989

          k = 0.2494 0.4320 0.0000 (  3009 PWs)   bands (ev):

   -17.5985 -12.8937 -11.3197  -5.0875   0.4720   6.8330   7.4430   7.7997

          k = 0.2494 0.5280 0.0000 (  2995 PWs)   bands (ev):

   -16.1765 -14.3151 -12.0277  -3.7021  -1.0482   8.5217   8.9364   9.8524

          k = 0.3326 0.5760 0.0000 (  2967 PWs)   bands (ev):

   -14.9593 -14.9593 -12.9223  -2.3462  -2.3462   8.2702  10.5308  10.5308

     the Fermi energy is    -2.3460 ev

!    total energy              =     -36.88587446 Ry
     Harris-Foulkes estimate   =     -36.88587446 Ry
     estimated scf accuracy    <          3.7E-11 Ry

     total all-electron energy =      -152.414070 Ry

     The total energy is the sum of the following terms:

     one-electron contribution =    -223.81344344 Ry
     hartree contribution      =     113.34134779 Ry
     xc contribution           =      -9.27399810 Ry
     ewald contribution        =      95.19403713 Ry
     one-center paw contrib.   =     -12.33381693 Ry
     smearing contrib. (-TS)   =      -0.00000091 Ry

     convergence has been achieved in   9 iterations

     negative rho (up, down):  1.305E-04 0.000E+00

     Forces acting on atoms (cartesian axes, Ry/au):

     atom    1 type  1   force =     0.00000000    0.00000000    0.00000000
     atom    2 type  1   force =     0.00000000    0.00000000    0.00000000

     Total force =     0.000000     Total SCF correction =     0.000000


     Computing stress (Cartesian axis) and pressure


     negative rho (up, down):  1.305E-04 0.000E+00
          total   stress  (Ry/bohr**3)                   (kbar)     P=   -0.48
   0.00000005   0.00000000   0.00000000          0.01      0.00      0.00
   0.00000000   0.00000005   0.00000000          0.00      0.01      0.00
   0.00000000   0.00000000  -0.00000982          0.00      0.00     -1.44


     number of scf cycles    =   4
     number of bfgs steps    =   3

     enthalpy old            =     -36.8858714127 Ry
     enthalpy new            =     -36.8858744566 Ry

     CASE: enthalpy_new < enthalpy_old

     small trust_radius: resetting bfgs history

     new trust radius        =       0.0000066137 bohr
     new conv_thr            =            1.0E-10 Ry

     new unit-cell volume =    710.60309 a.u.^3 (   105.30051 Ang^3 )
     density =      0.37881 g/cm^3

CELL_PARAMETERS (alat=  4.64872629)
   1.002304826   0.000000000   0.000000000
  -0.501152413   0.868021442   0.000000000
   0.000000000   0.000000000   8.130081301

ATOMIC_POSITIONS (crystal)
C       -0.000000000  -0.000000000   0.250000000
C        0.333333333   0.666666667   0.250000000



     Writing output data file graphene.save/
     NEW-OLD atomic charge density approx. for the potential

     Check: negative core charge=   -0.000002

     negative rho (up, down):  1.305E-04 0.000E+00
     extrapolated charge    8.00002, renormalised to    8.00000

     total cpu time spent up to now is       41.9 secs

     Self-consistent Calculation

     iteration #  1     ecut=    40.00 Ry     beta= 0.30
     Davidson diagonalization with overlap
     ethr =  1.00E-06,  avg # of iterations =  1.0

     Threshold (ethr) on eigenvalues was too large:
     Diagonalizing with lowered threshold

     Davidson diagonalization with overlap
     ethr =  2.03E-12,  avg # of iterations =  1.1

     negative rho (up, down):  1.305E-04 0.000E+00

     total cpu time spent up to now is       43.2 secs

     total energy              =     -36.88587446 Ry
     Harris-Foulkes estimate   =     -36.88533587 Ry
     estimated scf accuracy    <          1.7E-10 Ry

     iteration #  2     ecut=    40.00 Ry     beta= 0.30
     Davidson diagonalization with overlap
     ethr =  2.15E-12,  avg # of iterations =  2.0

     negative rho (up, down):  1.305E-04 0.000E+00

     total cpu time spent up to now is       44.0 secs

     End of self-consistent calculation

          k = 0.0000 0.0000 0.0000 (  3053 PWs)   bands (ev):

   -21.8803  -9.9729  -5.4004  -5.4004   0.8484   1.5147   1.6442   2.6551

          k =-0.0000 0.0960 0.0000 (  3034 PWs)   bands (ev):

   -21.7163  -9.7769  -6.0515  -5.7389   1.0719   1.7413   1.8722   2.8810

          k =-0.0000 0.1920 0.0000 (  3042 PWs)   bands (ev):

   -21.2261  -9.1940  -7.6909  -6.5324   1.7421   2.4202   2.5564   3.5572

          k =-0.0000 0.2880 0.0000 (  3030 PWs)   bands (ev):

   -20.4156  -9.7907  -8.2435  -7.4132   2.8571   3.5413   3.6966   4.6318

          k =-0.0000 0.3840 0.0000 (  3024 PWs)   bands (ev):

   -19.2969 -11.9950  -8.1476  -6.9756   2.5651   4.4060   5.1456   5.2742

          k =-0.0000 0.4800 0.0000 (  3034 PWs)   bands (ev):

   -17.9013 -14.0961  -8.6209  -5.5535   0.4312   5.1223   6.4184   7.3473

          k = 0.0000-0.5760 0.0000 (  3036 PWs)   bands (ev):

   -16.6389 -15.6015  -8.7836  -4.7095  -0.6661   5.0431   8.7321   8.8753

          k = 0.0831 0.1440 0.0000 (  3043 PWs)   bands (ev):

   -21.3892  -9.3873  -7.0865  -6.4172   1.5189   2.1942   2.3284   3.3322

          k = 0.0831 0.2400 0.0000 (  3029 PWs)   bands (ev):

   -20.7389  -8.7977  -8.6194  -7.4161   2.4123   3.0974   3.2408   4.2310

          k = 0.0831 0.3360 0.0000 (  3026 PWs)   bands (ev):

   -19.7741 -10.8718  -8.3034  -7.5037   3.5752   3.7480   4.4694   4.6089

          k = 0.0831 0.4320 0.0000 (  3023 PWs)   bands (ev):

   -18.5138 -12.9956  -8.9390  -6.1245   1.3777   5.5012   5.9735   6.2529

          k = 0.0831 0.5280 0.0000 (  3021 PWs)   bands (ev):

   -17.0348 -14.9373  -9.2678  -4.8160  -0.3901   5.7819   7.7204   8.7129

          k = 0.1663 0.2880 0.0000 (  3017 PWs)   bands (ev):

   -19.9343 -10.1291  -8.7790  -7.6824   3.5273   4.0330   4.2219   4.3815

          k = 0.1663 0.3840 0.0000 (  3024 PWs)   bands (ev):

   -18.8265 -11.8574  -9.8362  -6.4298   2.0860   5.0796   5.7811   5.9774

          k = 0.1663 0.4800 0.0000 (  3015 PWs)   bands (ev):

   -17.4508 -13.7685 -10.4128  -5.0035   0.1746   7.0437   7.6930   7.7168

          k = 0.1663 0.5760 0.0000 (  2996 PWs)   bands (ev):

   -16.2175 -15.2026 -10.5978  -4.1112  -0.8932   7.5904   9.2437   9.2989

          k = 0.2494 0.4320 0.0000 (  3009 PWs)   bands (ev):

   -17.5984 -12.8937 -11.3196  -5.0875   0.4720   6.8330   7.4430   7.7997

          k = 0.2494 0.5280 0.0000 (  2995 PWs)   bands (ev):

   -16.1765 -14.3150 -12.0277  -3.7021  -1.0482   8.5217   8.9364   9.8523

          k = 0.3326 0.5760 0.0000 (  2967 PWs)   bands (ev):

   -14.9592 -14.9592 -12.9223  -2.3462  -2.3462   8.2702  10.5308  10.5308

     the Fermi energy is    -2.3460 ev

!    total energy              =     -36.88587446 Ry
     Harris-Foulkes estimate   =     -36.88587446 Ry
     estimated scf accuracy    <          3.7E-12 Ry

     total all-electron energy =      -152.414070 Ry

     The total energy is the sum of the following terms:

     one-electron contribution =    -223.81286441 Ry
     hartree contribution      =     113.34104606 Ry
     xc contribution           =      -9.27399055 Ry
     ewald contribution        =      95.19375192 Ry
     one-center paw contrib.   =     -12.33381656 Ry
     smearing contrib. (-TS)   =      -0.00000091 Ry

     convergence has been achieved in   2 iterations

     negative rho (up, down):  1.305E-04 0.000E+00

     Forces acting on atoms (cartesian axes, Ry/au):

     atom    1 type  1   force =     0.00000000    0.00000000    0.00000000
     atom    2 type  1   force =     0.00000000    0.00000000    0.00000000

     Total force =     0.000000     Total SCF correction =     0.000000


     Computing stress (Cartesian axis) and pressure


     negative rho (up, down):  1.305E-04 0.000E+00
          total   stress  (Ry/bohr**3)                   (kbar)     P=   -0.48
   0.00000003  -0.00000000   0.00000000          0.00     -0.00      0.00
  -0.00000000   0.00000003  -0.00000000         -0.00      0.00     -0.00
   0.00000000   0.00000000  -0.00000984          0.00      0.00     -1.45


     bfgs converged in   5 scf cycles and   4 bfgs steps
     (criteria: energy <  1.0E-06 Ry, force <  1.0E-04Ry/Bohr, cell <  5.0E-01kbar)

     End of BFGS Geometry Optimization

     Final enthalpy =     -36.8858744567 Ry
Begin final coordinates
     new unit-cell volume =    710.60309 a.u.^3 (   105.30051 Ang^3 )
     density =      0.37881 g/cm^3

CELL_PARAMETERS (alat=  4.64872629)
   1.002304826   0.000000000   0.000000000
  -0.501152413   0.868021442   0.000000000
   0.000000000   0.000000000   8.130081301

ATOMIC_POSITIONS (crystal)
C       -0.000000000  -0.000000000   0.250000000
C        0.333333333   0.666666667   0.250000000
End final coordinates



     Writing output data file graphene.save/

     A final scf calculation at the relaxed structure.
     The G-vectors are recalculated for the final unit cell
     Results may differ from those at the preceding step.
 
     Parallelization info
     --------------------
     sticks:   dense  smooth     PW     G-vecs:    dense   smooth      PW
     Min         148      60     21                23978     6080    1139
     Max         149      61     22                24003     6101    1152
     Sum         595     241     85                95959    24345    4587
 


     bravais-lattice index     =           12
     lattice parameter (alat)  =       4.6487  a.u.
     unit-cell volume          =     710.6031 (a.u.)^3
     number of atoms/cell      =            2
     number of atomic types    =            1
     number of electrons       =         8.00
     number of Kohn-Sham states=            8
     kinetic-energy cutoff     =      40.0000  Ry
     charge density cutoff     =     400.0000  Ry
     convergence threshold     =      1.0E-10
     mixing beta               =       0.3000
     number of iterations used =            8  plain     mixing
     Exchange-correlation      = SLA PW PBX PBC ( 1  4  3  4 0 0)

     celldm(1)=   4.648726  celldm(2)=   1.000000  celldm(3)=   8.130081
     celldm(4)=  -0.500000  celldm(5)=   0.000000  celldm(6)=   0.000000

     crystal axes: (cart. coord. in units of alat)
               a(1) = (   1.002305   0.000000   0.000000 )  
               a(2) = (  -0.501152   0.868021   0.000000 )  
               a(3) = (   0.000000   0.000000   8.130081 )  

     reciprocal axes: (cart. coord. in units 2 pi/alat)
               b(1) = (  0.997700  0.576023  0.000000 )  
               b(2) = ( -0.000000  1.152045  0.000000 )  
               b(3) = (  0.000000  0.000000  0.123000 )  


     PseudoPot. # 1 for C  read from file:
     /home/bngjn/qe/SSSP_precision_pseudos/C.pbe-n-kjpaw_psl.1.0.0.UPF
     MD5 check sum: 5d2aebdfa2cae82b50a7e79e9516da0f
     Pseudo is Projector augmented-wave + core cor, Zval =  4.0
     Generated using "atomic" code by A. Dal Corso v.5.1
     Shape of augmentation charge: PSQ
     Using radial grid of 1073 points,  4 beta functions with: 
                l(1) =   0
                l(2) =   0
                l(3) =   1
                l(4) =   1
     Q(r) pseudized with 0 coefficients 


     atomic species   valence    mass     pseudopotential
        C              4.00    12.01070     C ( 1.00)

     24 Sym. Ops., with inversion, found (18 have fractional translation)



   Cartesian axes

     site n.     atom                  positions (alat units)
         1           C   tau(   1) = (  -0.0000000  -0.0000000   2.0325203  )
         2           C   tau(   2) = (  -0.0000000   0.5786810   2.0325203  )

     number of k points=    19  Marzari-Vanderbilt smearing, width (Ry)=  0.0001
                       cart. coord. in units 2pi/alat
        k(    1) = (   0.0000000   0.0000000   0.0000000), wk =   0.0138889
        k(    2) = (  -0.0000000   0.0960038   0.0000000), wk =   0.0833333
        k(    3) = (  -0.0000000   0.1920075   0.0000000), wk =   0.0833333
        k(    4) = (  -0.0000000   0.2880113   0.0000000), wk =   0.0833333
        k(    5) = (  -0.0000000   0.3840151   0.0000000), wk =   0.0833333
        k(    6) = (  -0.0000000   0.4800189   0.0000000), wk =   0.0833333
        k(    7) = (   0.0000000  -0.5760226   0.0000000), wk =   0.0416667
        k(    8) = (   0.0831417   0.1440057   0.0000000), wk =   0.0833333
        k(    9) = (   0.0831417   0.2400094   0.0000000), wk =   0.1666667
        k(   10) = (   0.0831417   0.3360132   0.0000000), wk =   0.1666667
        k(   11) = (   0.0831417   0.4320170   0.0000000), wk =   0.1666667
        k(   12) = (   0.0831417   0.5280208   0.0000000), wk =   0.1666667
        k(   13) = (   0.1662834   0.2880113   0.0000000), wk =   0.0833333
        k(   14) = (   0.1662834   0.3840151   0.0000000), wk =   0.1666667
        k(   15) = (   0.1662834   0.4800189   0.0000000), wk =   0.1666667
        k(   16) = (   0.1662834   0.5760226   0.0000000), wk =   0.0833333
        k(   17) = (   0.2494251   0.4320170   0.0000000), wk =   0.0833333
        k(   18) = (   0.2494251   0.5280208   0.0000000), wk =   0.1666667
        k(   19) = (   0.3325668   0.5760226   0.0000000), wk =   0.0277778

     Dense  grid:    95959 G-vectors     FFT dimensions: (  30,  30, 250)

     Smooth grid:    24345 G-vectors     FFT dimensions: (  24,  24, 160)

     Estimated max dynamical RAM per process >      34.92 MB

     Estimated total dynamical RAM >     139.70 MB

     Check: negative core charge=   -0.000002

     Initial potential from superposition of free atoms

     starting charge    7.99992, renormalised to    8.00000

     negative rho (up, down):  1.066E-04 0.000E+00
     Starting wfcs are    8 randomized atomic wfcs
     Checking if some PAW data can be deallocated... 

     total cpu time spent up to now is       46.4 secs

     Self-consistent Calculation

     iteration #  1     ecut=    40.00 Ry     beta= 0.30
     Davidson diagonalization with overlap
     c_bands:  1 eigenvalues not converged
     c_bands:  1 eigenvalues not converged
     c_bands:  1 eigenvalues not converged
     ethr =  1.00E-06,  avg # of iterations = 16.3

     negative rho (up, down):  1.099E-04 0.000E+00

     total cpu time spent up to now is       48.6 secs

     total energy              =     -36.90742173 Ry
     Harris-Foulkes estimate   =     -36.97737405 Ry
     estimated scf accuracy    <       0.20269676 Ry

     iteration #  2     ecut=    40.00 Ry     beta= 0.30
     Davidson diagonalization with overlap
     ethr =  2.53E-03,  avg # of iterations =  1.1

     negative rho (up, down):  2.591E-04 0.000E+00

     total cpu time spent up to now is       49.3 secs

     total energy              =     -36.87530518 Ry
     Harris-Foulkes estimate   =     -36.91325697 Ry
     estimated scf accuracy    <       0.06629517 Ry

     iteration #  3     ecut=    40.00 Ry     beta= 0.30
     Davidson diagonalization with overlap
     ethr =  8.29E-04,  avg # of iterations =  5.2

     negative rho (up, down):  2.691E-04 0.000E+00

     total cpu time spent up to now is       50.3 secs

     total energy              =     -36.88583720 Ry
     Harris-Foulkes estimate   =     -36.88594743 Ry
     estimated scf accuracy    <       0.00124132 Ry

     iteration #  4     ecut=    40.00 Ry     beta= 0.30
     Davidson diagonalization with overlap
     ethr =  1.55E-05,  avg # of iterations =  4.1

     negative rho (up, down):  2.203E-04 0.000E+00

     total cpu time spent up to now is       51.4 secs

     total energy              =     -36.88583838 Ry
     Harris-Foulkes estimate   =     -36.88612940 Ry
     estimated scf accuracy    <       0.00048514 Ry

     iteration #  5     ecut=    40.00 Ry     beta= 0.30
     Davidson diagonalization with overlap
     ethr =  6.06E-06,  avg # of iterations =  3.2

     negative rho (up, down):  1.806E-04 0.000E+00

     total cpu time spent up to now is       52.3 secs

     total energy              =     -36.88590864 Ry
     Harris-Foulkes estimate   =     -36.88590956 Ry
     estimated scf accuracy    <       0.00000349 Ry

     iteration #  6     ecut=    40.00 Ry     beta= 0.30
     Davidson diagonalization with overlap
     ethr =  4.36E-08,  avg # of iterations =  2.5

     negative rho (up, down):  1.555E-04 0.000E+00

     total cpu time spent up to now is       53.1 secs

     total energy              =     -36.88591017 Ry
     Harris-Foulkes estimate   =     -36.88591029 Ry
     estimated scf accuracy    <       0.00000067 Ry

     iteration #  7     ecut=    40.00 Ry     beta= 0.30
     Davidson diagonalization with overlap
     ethr =  8.35E-09,  avg # of iterations =  2.0

     negative rho (up, down):  1.417E-04 0.000E+00

     total cpu time spent up to now is       54.0 secs

     total energy              =     -36.88591027 Ry
     Harris-Foulkes estimate   =     -36.88591025 Ry
     estimated scf accuracy    <       0.00000002 Ry

     iteration #  8     ecut=    40.00 Ry     beta= 0.30
     Davidson diagonalization with overlap
     ethr =  2.08E-10,  avg # of iterations =  2.0

     negative rho (up, down):  1.342E-04 0.000E+00

     total cpu time spent up to now is       54.8 secs

     total energy              =     -36.88591026 Ry
     Harris-Foulkes estimate   =     -36.88591027 Ry
     estimated scf accuracy    <          5.4E-09 Ry

     iteration #  9     ecut=    40.00 Ry     beta= 0.30
     Davidson diagonalization with overlap
     ethr =  6.80E-11,  avg # of iterations =  2.0

     negative rho (up, down):  1.263E-04 0.000E+00

     total cpu time spent up to now is       55.6 secs

     End of self-consistent calculation

          k = 0.0000 0.0000 0.0000 (  3053 PWs)   bands (ev):

   -21.8802  -9.9729  -5.4003  -5.4003   0.8490   1.5153   1.6441   2.6545

          k =-0.0000 0.0960 0.0000 (  3048 PWs)   bands (ev):

   -21.7163  -9.7769  -6.0516  -5.7391   1.0724   1.7419   1.8721   2.8803

          k =-0.0000 0.1920 0.0000 (  3046 PWs)   bands (ev):

   -21.2261  -9.1940  -7.6909  -6.5324   1.7427   2.4208   2.5564   3.5565

          k =-0.0000 0.2880 0.0000 (  3046 PWs)   bands (ev):

   -20.4156  -9.7907  -8.2435  -7.4134   2.8576   3.5419   3.6965   4.6311

          k =-0.0000 0.3840 0.0000 (  3042 PWs)   bands (ev):

   -19.2969 -11.9952  -8.1476  -6.9756   2.5651   4.4066   5.1463   5.2737

          k =-0.0000 0.4800 0.0000 (  3050 PWs)   bands (ev):

   -17.9012 -14.0961  -8.6211  -5.5535   0.4312   5.1223   6.4190   7.1597

          k = 0.0000-0.5760 0.0000 (  3052 PWs)   bands (ev):

   -16.6389 -15.6014  -8.7838  -4.7094  -0.6661   5.0430   8.7329   8.8754

          k = 0.0831 0.1440 0.0000 (  3051 PWs)   bands (ev):

   -21.3892  -9.3873  -7.0865  -6.4174   1.5195   2.1948   2.3283   3.3318

          k = 0.0831 0.2400 0.0000 (  3043 PWs)   bands (ev):

   -20.7388  -8.7977  -8.6194  -7.4163   2.4128   3.0980   3.2407   4.2303

          k = 0.0831 0.3360 0.0000 (  3028 PWs)   bands (ev):

   -19.7741 -10.8718  -8.3034  -7.5037   3.5753   3.7485   4.4700   4.6088

          k = 0.0831 0.4320 0.0000 (  3039 PWs)   bands (ev):

   -18.5138 -12.9957  -8.9390  -6.1245   1.3776   5.5017   5.9735   6.2536

          k = 0.0831 0.5280 0.0000 (  3037 PWs)   bands (ev):

   -17.0347 -14.9373  -9.2678  -4.8159  -0.3901   5.7819   7.7210   8.4536

          k = 0.1663 0.2880 0.0000 (  3031 PWs)   bands (ev):

   -19.9342 -10.1291  -8.7790  -7.6824   3.5278   4.0329   4.2225   4.3814

          k = 0.1663 0.3840 0.0000 (  3041 PWs)   bands (ev):

   -18.8264 -11.8574  -9.8363  -6.4297   2.0860   5.0801   5.7818   5.9773

          k = 0.1663 0.4800 0.0000 (  3039 PWs)   bands (ev):

   -17.4507 -13.7685 -10.4129  -5.0035   0.1745   7.0442   7.6928   7.7174

          k = 0.1663 0.5760 0.0000 (  3000 PWs)   bands (ev):

   -16.2174 -15.2026 -10.5977  -4.1112  -0.8931   7.5904   9.2438   9.2997

          k = 0.2494 0.4320 0.0000 (  3029 PWs)   bands (ev):

   -17.5984 -12.8937 -11.3197  -5.0875   0.4719   6.8335   7.4436   7.7996

          k = 0.2494 0.5280 0.0000 (  3011 PWs)   bands (ev):

   -16.1764 -14.3150 -12.0277  -3.7021  -1.0482   8.5219   8.9368   9.8523

          k = 0.3326 0.5760 0.0000 (  3009 PWs)   bands (ev):

   -14.9593 -14.9593 -12.9224  -2.3463  -2.3463   8.2702  10.5309  10.5309

     the Fermi energy is    -2.3461 ev

!    total energy              =     -36.88591027 Ry
     Harris-Foulkes estimate   =     -36.88591026 Ry
     estimated scf accuracy    <          1.6E-11 Ry

     total all-electron energy =      -152.414106 Ry

     The total energy is the sum of the following terms:

     one-electron contribution =    -223.81296507 Ry
     hartree contribution      =     113.34110175 Ry
     xc contribution           =      -9.27399010 Ry
     ewald contribution        =      95.19375192 Ry
     one-center paw contrib.   =     -12.33380785 Ry
     smearing contrib. (-TS)   =      -0.00000091 Ry

     convergence has been achieved in   9 iterations

     negative rho (up, down):  1.263E-04 0.000E+00

     Forces acting on atoms (cartesian axes, Ry/au):

     atom    1 type  1   force =     0.00000000    0.00000000    0.00000000
     atom    2 type  1   force =    -0.00000000   -0.00000000    0.00000000

     Total force =     0.000000     Total SCF correction =     0.000000


     Computing stress (Cartesian axis) and pressure


     negative rho (up, down):  1.263E-04 0.000E+00
          total   stress  (Ry/bohr**3)                   (kbar)     P=   -0.42
   0.00000057  -0.00000000   0.00000000          0.08     -0.00      0.00
  -0.00000000   0.00000057   0.00000000         -0.00      0.08      0.00
   0.00000000   0.00000000  -0.00000961          0.00      0.00     -1.41


     Writing output data file graphene.save/
 
     init_run     :      1.53s CPU      1.64s WALL (       2 calls)
     electrons    :     39.00s CPU     40.88s WALL (       6 calls)
     update_pot   :      3.66s CPU      3.76s WALL (       4 calls)
     forces       :      2.95s CPU      3.06s WALL (       6 calls)
     stress       :      5.97s CPU      6.08s WALL (       6 calls)

     Called by init_run:
     wfcinit      :      0.36s CPU      0.39s WALL (       2 calls)
     potinit      :      0.51s CPU      0.52s WALL (       2 calls)
     hinit0       :      0.54s CPU      0.58s WALL (       2 calls)

     Called by electrons:
     c_bands      :     24.10s CPU     25.19s WALL (      45 calls)
     sum_band     :      7.87s CPU      8.24s WALL (      45 calls)
     v_of_rho     :      4.00s CPU      4.20s WALL (      50 calls)
     newd         :      1.33s CPU      1.41s WALL (      50 calls)
     PAW_pot      :      1.53s CPU      1.61s WALL (      54 calls)
     mix_rho      :      0.62s CPU      0.68s WALL (      45 calls)

     Called by c_bands:
     init_us_2    :      0.40s CPU      0.42s WALL (    2052 calls)
     cegterg      :     23.29s CPU     24.31s WALL (     855 calls)

     Called by sum_band:
     sum_band:bec :      0.02s CPU      0.02s WALL (     931 calls)
     addusdens    :      1.45s CPU      1.50s WALL (      45 calls)

     Called by *egterg:
     h_psi        :     21.12s CPU     22.02s WALL (    3445 calls)
     s_psi        :      0.17s CPU      0.17s WALL (    3445 calls)
     g_psi        :      0.04s CPU      0.04s WALL (    2552 calls)
     cdiaghg      :      0.58s CPU      0.61s WALL (    3312 calls)

     Called by h_psi:
     h_psi:pot    :     21.03s CPU     21.93s WALL (    3445 calls)
     h_psi:calbec :      0.80s CPU      0.83s WALL (    3445 calls)
     vloc_psi     :     19.87s CPU     20.72s WALL (    3445 calls)
     add_vuspsi   :      0.33s CPU      0.35s WALL (    3445 calls)

     General routines
     calbec       :      1.17s CPU      1.22s WALL (    4946 calls)
     fft          :      4.50s CPU      4.75s WALL (     793 calls)
     ffts         :      0.09s CPU      0.09s WALL (      95 calls)
     fftw         :     19.01s CPU     19.89s WALL (   44626 calls)
     interpolate  :      0.34s CPU      0.36s WALL (      50 calls)
 
     Parallel routines
     fft_scatt_xy :      4.34s CPU      4.54s WALL (   45514 calls)
     fft_scatt_yz :      7.20s CPU      7.64s WALL (   45514 calls)
 
     PWSCF        :     54.05s CPU     56.42s WALL

 
   This run was terminated on:  14:23:33  24Jul2019            

=------------------------------------------------------------------------------=
   JOB DONE.
=------------------------------------------------------------------------------=
