
     Program BANDS v.6.4.1 starts on 24Jul2019 at 15:26:33 

     This program is part of the open-source Quantum ESPRESSO suite
     for quantum simulation of materials; please cite
         "P. Giannozzi et al., J. Phys.:Condens. Matter 21 395502 (2009);
         "P. Giannozzi et al., J. Phys.:Condens. Matter 29 465901 (2017);
          URL http://www.quantum-espresso.org", 
     in publications or presentations arising from this work. More details at
     http://www.quantum-espresso.org/quote

     Parallel version (MPI), running on     4 processors

     MPI processes distributed on     1 nodes
     R & G space division:  proc/nbgrp/npool/nimage =       4

     Reading data from directory:
     ./outdir/graphene.save/

     IMPORTANT: XC functional enforced from input :
     Exchange-correlation      = PBE ( 1  4  3  4 0 0)
     Any further DFT definition will be discarded
     Please, verify this is what you really want

               file C.pbe-n-kjpaw_psl.1.0.0.UPF: wavefunction(s)  2S 2P renormalized
 
     Parallelization info
     --------------------
     sticks:   dense  smooth     PW     G-vecs:    dense   smooth      PW
     Min         148      60     21                23978     6080    1139
     Max         149      61     22                24003     6101    1152
     Sum         595     241     85                95959    24345    4587
 

     Check: negative core charge=   -0.000002

     negative rho (up, down):  1.263E-04 0.000E+00
     high-symmetry point:  0.0000 0.0000 0.0000   x coordinate   0.0000
     high-symmetry point: -0.3326 0.5760 0.0000   x coordinate   0.6651
     high-symmetry point:  0.0000 0.5760 0.0000   x coordinate   0.9977
     high-symmetry point:  0.0000 0.0000 0.0000   x coordinate   1.5737

     Plottable bands (eV) written to file graphene.bands.dat.gnu
     Bands written to file graphene.bands.dat

 **************************************************************************

                    xk=(   0.00000,   0.00000,   0.00000  )

     point group D_6h(6/mmm)
     there are 12 classes
     the character table:

       E     2C6   2C3   C2    3C2'  3C2'' i     2S3   2S6   s_h   3s_d  3s_v 
A_1g   1.00  1.00  1.00  1.00  1.00  1.00  1.00  1.00  1.00  1.00  1.00  1.00
A_2g   1.00  1.00  1.00  1.00 -1.00 -1.00  1.00  1.00  1.00  1.00 -1.00 -1.00
B_1g   1.00 -1.00  1.00 -1.00  1.00 -1.00  1.00 -1.00  1.00 -1.00  1.00 -1.00
B_2g   1.00 -1.00  1.00 -1.00 -1.00  1.00  1.00 -1.00  1.00 -1.00 -1.00  1.00
E_1g   2.00  1.00 -1.00 -2.00  0.00  0.00  2.00  1.00 -1.00 -2.00  0.00  0.00
E_2g   2.00 -1.00 -1.00  2.00  0.00  0.00  2.00 -1.00 -1.00  2.00  0.00  0.00
A_1u   1.00  1.00  1.00  1.00  1.00  1.00 -1.00 -1.00 -1.00 -1.00 -1.00 -1.00
A_2u   1.00  1.00  1.00  1.00 -1.00 -1.00 -1.00 -1.00 -1.00 -1.00  1.00  1.00
B_1u   1.00 -1.00  1.00 -1.00  1.00 -1.00 -1.00  1.00 -1.00  1.00 -1.00  1.00
B_2u   1.00 -1.00  1.00 -1.00 -1.00  1.00 -1.00  1.00 -1.00  1.00  1.00 -1.00
E_1u   2.00  1.00 -1.00 -2.00  0.00  0.00 -2.00 -1.00  1.00  2.00  0.00  0.00
E_2u   2.00 -1.00 -1.00  2.00  0.00  0.00 -2.00  1.00  1.00 -2.00  0.00  0.00

     the symmetry operations in each class and the name of the first element:

     E        1
                                                                 
     2C6      5    6
                                                                 
     2C3      7    8
                                                                 
     C2       2
                                                                 
     3C2'     4   12   11
                                                                 
     3C2''    3    9   10
                                                                 
     i       13
                                                                 
     2S3     17   18
                                                                 
     2S6     19   20
                                                                 
     s_h     14
                                                                 
     3s_d    16   24   23
                                                                 
     3s_v    15   21   22
                                                                 

     Band symmetry, D_6h(6/mmm) point group:

     e(  1 -  1) =    -21.88035  eV     1   --> A_1g           
     e(  2 -  2) =     -9.97296  eV     1   --> A_2u           
     e(  3 -  4) =     -5.40051  eV     2   --> E_2g           
     e(  5 -  5) =      0.84965  eV     1   --> A_1g           
     e(  6 -  6) =      1.51669  eV     1   --> A_2u           
     e(  7 -  7) =      1.64584  eV     1   --> A_1g           
     e(  8 -  8) =      2.65584  eV     1   --> A_2u           

 **************************************************************************

 **************************************************************************

                    xk=(  -0.01109,   0.01920,   0.00000  )

     point group C_2v (mm2) 
     there are  4 classes
     the character table:

       E     C2    s_v   s_v' 
A_1    1.00  1.00  1.00  1.00
A_2    1.00  1.00 -1.00 -1.00
B_1    1.00 -1.00  1.00 -1.00
B_2    1.00 -1.00 -1.00  1.00

     the symmetry operations in each class and the name of the first element:

     E        1
                                                                 
     C2       2
                                                                 
     s_v      4
                                                                 
     s_v'     3
                                                                 

     Band symmetry, C_2v (mm2)  point group:

     e(  1 -  1) =    -21.87161  eV     1   --> A_1  D_1  S_1  
     e(  2 -  2) =     -9.96252  eV     1   --> B_1  D_3  S_3  
     e(  3 -  3) =     -5.43705  eV     1   --> B_2  D_4  S_4  
     e(  4 -  4) =     -5.41991  eV     1   --> A_1  D_1  S_1  
     e(  5 -  5) =      0.86156  eV     1   --> A_1  D_1  S_1  
     e(  6 -  6) =      1.52878  eV     1   --> B_1  D_3  S_3  
     e(  7 -  7) =      1.65800  eV     1   --> A_1  D_1  S_1  
     e(  8 -  8) =      2.66789  eV     1   --> B_1  D_3  S_3  

 **************************************************************************

 **************************************************************************

                    xk=(  -0.02217,   0.03840,   0.00000  )

     Band symmetry, C_2v (mm2)  point group:

     e(  1 -  1) =    -21.84536  eV     1   --> A_1  D_1  S_1  
     e(  2 -  2) =     -9.93110  eV     1   --> B_1  D_3  S_3  
     e(  3 -  3) =     -5.54463  eV     1   --> B_2  D_4  S_4  
     e(  4 -  4) =     -5.47785  eV     1   --> A_1  D_1  S_1  
     e(  5 -  5) =      0.89731  eV     1   --> A_1  D_1  S_1  
     e(  6 -  6) =      1.56505  eV     1   --> B_1  D_3  S_3  
     e(  7 -  7) =      1.69449  eV     1   --> A_1  D_1  S_1  
     e(  8 -  8) =      2.70403  eV     1   --> B_1  D_3  S_3  

 **************************************************************************

 **************************************************************************

                    xk=(  -0.03326,   0.05760,   0.00000  )

     Band symmetry, C_2v (mm2)  point group:

     e(  1 -  1) =    -21.80162  eV     1   --> A_1  D_1  S_1  
     e(  2 -  2) =     -9.87882  eV     1   --> B_1  D_3  S_3  
     e(  3 -  3) =     -5.71762  eV     1   --> B_2  D_4  S_4  
     e(  4 -  4) =     -5.57322  eV     1   --> A_1  D_1  S_1  
     e(  5 -  5) =      0.95690  eV     1   --> A_1  D_1  S_1  
     e(  6 -  6) =      1.62548  eV     1   --> B_1  D_3  S_3  
     e(  7 -  7) =      1.75530  eV     1   --> A_1  D_1  S_1  
     e(  8 -  8) =      2.76426  eV     1   --> B_1  D_3  S_3  

 **************************************************************************

 **************************************************************************

                    xk=(  -0.04434,   0.07680,   0.00000  )

     Band symmetry, C_2v (mm2)  point group:

     e(  1 -  1) =    -21.74041  eV     1   --> A_1  D_1  S_1  
     e(  2 -  2) =     -9.80567  eV     1   --> B_1  D_3  S_3  
     e(  3 -  3) =     -5.94884  eV     1   --> B_2  D_4  S_4  
     e(  4 -  4) =     -5.70474  eV     1   --> A_1  D_1  S_1  
     e(  5 -  5) =      1.04033  eV     1   --> A_1  D_1  S_1  
     e(  6 -  6) =      1.71007  eV     1   --> B_1  D_3  S_3  
     e(  7 -  7) =      1.84044  eV     1   --> A_1  D_1  S_1  
     e(  8 -  8) =      2.84857  eV     1   --> B_1  D_3  S_3  

 **************************************************************************

 **************************************************************************

                    xk=(  -0.05543,   0.09600,   0.00000  )

     Band symmetry, C_2v (mm2)  point group:

     e(  1 -  1) =    -21.66178  eV     1   --> A_1  D_1  S_1  
     e(  2 -  2) =     -9.71179  eV     1   --> B_1  D_3  S_3  
     e(  3 -  3) =     -6.22943  eV     1   --> B_2  D_4  S_4  
     e(  4 -  4) =     -5.87049  eV     1   --> A_1  D_1  S_1  
     e(  5 -  5) =      1.14761  eV     1   --> A_1  D_1  S_1  
     e(  6 -  6) =      1.81881  eV     1   --> B_1  D_3  S_3  
     e(  7 -  7) =      1.94992  eV     1   --> A_1  D_1  S_1  
     e(  8 -  8) =      2.95693  eV     1   --> B_1  D_3  S_3  

 **************************************************************************

 **************************************************************************

                    xk=(  -0.06651,   0.11520,   0.00000  )

     Band symmetry, C_2v (mm2)  point group:

     e(  1 -  1) =    -21.56576  eV     1   --> A_1  D_1  S_1  
     e(  2 -  2) =     -9.59730  eV     1   --> B_1  D_3  S_3  
     e(  3 -  3) =     -6.54970  eV     1   --> B_2  D_4  S_4  
     e(  4 -  4) =     -6.06777  eV     1   --> A_1  D_1  S_1  
     e(  5 -  5) =      1.27874  eV     1   --> A_1  D_1  S_1  
     e(  6 -  6) =      1.95168  eV     1   --> B_1  D_3  S_3  
     e(  7 -  7) =      2.08374  eV     1   --> A_1  D_1  S_1  
     e(  8 -  8) =      3.08932  eV     1   --> B_1  D_3  S_3  

 **************************************************************************

 **************************************************************************

                    xk=(  -0.07760,   0.13441,   0.00000  )

     Band symmetry, C_2v (mm2)  point group:

     e(  1 -  1) =    -21.45244  eV     1   --> A_1  D_1  S_1  
     e(  2 -  2) =     -9.46241  eV     1   --> B_1  D_3  S_3  
     e(  3 -  3) =     -6.90152  eV     1   --> B_2  D_4  S_4  
     e(  4 -  4) =     -6.29438  eV     1   --> A_1  D_1  S_1  
     e(  5 -  5) =      1.43371  eV     1   --> A_1  D_1  S_1  
     e(  6 -  6) =      2.10863  eV     1   --> B_1  D_3  S_3  
     e(  7 -  7) =      2.24189  eV     1   --> A_1  D_1  S_1  
     e(  8 -  8) =      3.24570  eV     1   --> B_1  D_3  S_3  

 **************************************************************************

 **************************************************************************

                    xk=(  -0.08868,   0.15361,   0.00000  )

     Band symmetry, C_2v (mm2)  point group:

     e(  1 -  1) =    -21.32188  eV     1   --> A_1  D_1  S_1  
     e(  2 -  2) =     -9.30734  eV     1   --> B_1  D_3  S_3  
     e(  3 -  3) =     -7.27694  eV     1   --> B_2  D_4  S_4  
     e(  4 -  4) =     -6.54684  eV     1   --> A_1  D_1  S_1  
     e(  5 -  5) =      1.61252  eV     1   --> A_1  D_1  S_1  
     e(  6 -  6) =      2.28964  eV     1   --> B_1  D_3  S_3  
     e(  7 -  7) =      2.42438  eV     1   --> A_1  D_1  S_1  
     e(  8 -  8) =      3.42603  eV     1   --> B_1  D_3  S_3  

 **************************************************************************

 **************************************************************************

                    xk=(  -0.09977,   0.17281,   0.00000  )

     Band symmetry, C_2v (mm2)  point group:

     e(  1 -  1) =    -21.17413  eV     1   --> A_1  D_1  S_1  
     e(  2 -  2) =     -9.13220  eV     1   --> B_1  D_3  S_3  
     e(  3 -  3) =     -7.66954  eV     1   --> B_2  D_4  S_4  
     e(  4 -  4) =     -6.82222  eV     1   --> A_1  D_1  S_1  
     e(  5 -  5) =      1.81514  eV     1   --> A_1  D_1  S_1  
     e(  6 -  6) =      2.49466  eV     1   --> B_1  D_3  S_3  
     e(  7 -  7) =      2.63121  eV     1   --> A_1  D_1  S_1  
     e(  8 -  8) =      3.63025  eV     1   --> B_1  D_3  S_3  

 **************************************************************************

 **************************************************************************

                    xk=(  -0.11086,   0.19201,   0.00000  )

     Band symmetry, C_2v (mm2)  point group:

     e(  1 -  1) =    -21.00932  eV     1   --> A_1  D_1  S_1  
     e(  2 -  2) =     -8.93739  eV     1   --> B_1  D_3  S_3  
     e(  3 -  3) =     -8.07333  eV     1   --> B_2  D_4  S_4  
     e(  4 -  4) =     -7.11714  eV     1   --> A_1  D_1  S_1  
     e(  5 -  5) =      2.04155  eV     1   --> A_1  D_1  S_1  
     e(  6 -  6) =      2.72363  eV     1   --> B_1  D_3  S_3  
     e(  7 -  7) =      2.86237  eV     1   --> A_1  D_1  S_1  
     e(  8 -  8) =      3.85829  eV     1   --> B_1  D_3  S_3  

 **************************************************************************

 **************************************************************************

                    xk=(  -0.12194,   0.21121,   0.00000  )

     Band symmetry, C_2v (mm2)  point group:

     e(  1 -  1) =    -20.82757  eV     1   --> A_1  D_1  S_1  
     e(  2 -  2) =     -8.72323  eV     1   --> B_1  D_3  S_3  
     e(  3 -  3) =     -8.48408  eV     1   --> B_2  D_4  S_4  
     e(  4 -  4) =     -7.42860  eV     1   --> A_1  D_1  S_1  
     e(  5 -  5) =      2.29171  eV     1   --> A_1  D_1  S_1  
     e(  6 -  6) =      2.97648  eV     1   --> B_1  D_3  S_3  
     e(  7 -  7) =      3.11788  eV     1   --> A_1  D_1  S_1  
     e(  8 -  8) =      4.11004  eV     1   --> B_1  D_3  S_3  

 **************************************************************************

 **************************************************************************

                    xk=(  -0.13303,   0.23041,   0.00000  )

     Band symmetry, C_2v (mm2)  point group:

     e(  1 -  1) =    -20.62901  eV     1   --> A_1  D_1  S_1  
     e(  2 -  2) =     -8.89796  eV     1   --> B_2  D_4  S_4  
     e(  3 -  3) =     -8.49013  eV     1   --> B_1  D_3  S_3  
     e(  4 -  4) =     -7.75353  eV     1   --> A_1  D_1  S_1  
     e(  5 -  5) =      2.56555  eV     1   --> A_1  D_1  S_1  
     e(  6 -  6) =      3.25308  eV     1   --> B_1  D_3  S_3  
     e(  7 -  7) =      3.39771  eV     1   --> A_1  D_1  S_1  
     e(  8 -  8) =      4.38539  eV     1   --> B_1  D_3  S_3  

 **************************************************************************

 **************************************************************************

                    xk=(  -0.14411,   0.24961,   0.00000  )

     Band symmetry, C_2v (mm2)  point group:

     e(  1 -  1) =    -20.41384  eV     1   --> A_1  D_1  S_1  
     e(  2 -  2) =     -9.31170  eV     1   --> B_2  D_4  S_4  
     e(  3 -  3) =     -8.23863  eV     1   --> B_1  D_3  S_3  
     e(  4 -  4) =     -8.08876  eV     1   --> A_1  D_1  S_1  
     e(  5 -  5) =      2.86301  eV     1   --> A_1  D_1  S_1  
     e(  6 -  6) =      3.55331  eV     1   --> B_1  D_3  S_3  
     e(  7 -  7) =      3.70187  eV     1   --> A_1  D_1  S_1  
     e(  8 -  8) =      4.68415  eV     1   --> B_1  D_3  S_3  

 **************************************************************************

 **************************************************************************

                    xk=(  -0.15520,   0.26881,   0.00000  )

     Band symmetry, C_2v (mm2)  point group:

     e(  1 -  1) =    -20.18220  eV     1   --> A_1  D_1  S_1  
     e(  2 -  2) =     -9.72286  eV     1   --> B_2  D_4  S_4  
     e(  3 -  3) =     -8.43161  eV     1   --> A_1  D_1  S_1  
     e(  4 -  4) =     -7.96917  eV     1   --> B_1  D_3  S_3  
     e(  5 -  5) =      3.18402  eV     1   --> A_1  D_1  S_1  
     e(  6 -  6) =      3.87699  eV     1   --> B_1  D_3  S_3  
     e(  7 -  7) =      4.03035  eV     1   --> A_1  D_1  S_1  
     e(  8 -  8) =      4.52879  eV     1   --> A_2  D_2  S_2  

 **************************************************************************

 **************************************************************************

                    xk=(  -0.16628,   0.28801,   0.00000  )

     Band symmetry, C_2v (mm2)  point group:

     e(  1 -  1) =    -19.93437  eV     1   --> A_1  D_1  S_1  
     e(  2 -  2) =    -10.12922  eV     1   --> B_2  D_4  S_4  
     e(  3 -  3) =     -8.77919  eV     1   --> A_1  D_1  S_1  
     e(  4 -  4) =     -7.68251  eV     1   --> B_1  D_3  S_3  
     e(  5 -  5) =      3.52845  eV     1   --> A_1  D_1  S_1  
     e(  6 -  6) =      4.03274  eV     1   --> A_2  D_2  S_2  
     e(  7 -  7) =      4.22383  eV     1   --> B_1  D_3  S_3  
     e(  8 -  8) =      4.38314  eV     1   --> A_1  D_1  S_1  

 **************************************************************************

 **************************************************************************

                    xk=(  -0.17737,   0.30721,   0.00000  )

     Band symmetry, C_2v (mm2)  point group:

     e(  1 -  1) =    -19.67059  eV     1   --> A_1  D_1  S_1  
     e(  2 -  2) =    -10.52935  eV     1   --> B_2  D_4  S_4  
     e(  3 -  3) =     -9.12935  eV     1   --> A_1  D_1  S_1  
     e(  4 -  4) =     -7.37937  eV     1   --> B_1  D_3  S_3  
     e(  5 -  5) =      3.53645  eV     1   --> A_2  D_2  S_2  
     e(  6 -  6) =      3.89617  eV     1   --> A_1  D_1  S_1  
     e(  7 -  7) =      4.59349  eV     1   --> B_1  D_3  S_3  
     e(  8 -  8) =      4.76022  eV     1   --> A_1  D_1  S_1  

 **************************************************************************

 **************************************************************************

                    xk=(  -0.18845,   0.32641,   0.00000  )

     Band symmetry, C_2v (mm2)  point group:

     e(  1 -  1) =    -19.39118  eV     1   --> A_1  D_1  S_1  
     e(  2 -  2) =    -10.92159  eV     1   --> B_2  D_4  S_4  
     e(  3 -  3) =     -9.47985  eV     1   --> A_1  D_1  S_1  
     e(  4 -  4) =     -7.06066  eV     1   --> B_1  D_3  S_3  
     e(  5 -  5) =      3.04296  eV     1   --> A_2  D_2  S_2  
     e(  6 -  6) =      4.28699  eV     1   --> A_1  D_1  S_1  
     e(  7 -  7) =      4.98539  eV     1   --> B_1  D_3  S_3  
     e(  8 -  8) =      5.16157  eV     1   --> A_1  D_1  S_1  

 **************************************************************************

 **************************************************************************

                    xk=(  -0.19954,   0.34561,   0.00000  )

     Band symmetry, C_2v (mm2)  point group:

     e(  1 -  1) =    -19.09659  eV     1   --> A_1  D_1  S_1  
     e(  2 -  2) =    -11.30466  eV     1   --> B_2  D_4  S_4  
     e(  3 -  3) =     -9.82824  eV     1   --> A_1  D_1  S_1  
     e(  4 -  4) =     -6.72755  eV     1   --> B_1  D_3  S_3  
     e(  5 -  5) =      2.55467  eV     1   --> A_2  D_2  S_2  
     e(  6 -  6) =      4.70070  eV     1   --> A_1  D_1  S_1  
     e(  7 -  7) =      5.39868  eV     1   --> B_1  D_3  S_3  
     e(  8 -  8) =      5.58718  eV     1   --> A_1  D_1  S_1  

 **************************************************************************

 **************************************************************************

                    xk=(  -0.21063,   0.36481,   0.00000  )

     Band symmetry, C_2v (mm2)  point group:

     e(  1 -  1) =    -18.78721  eV     1   --> A_1  D_1  S_1  
     e(  2 -  2) =    -11.67768  eV     1   --> B_2  D_4  S_4  
     e(  3 -  3) =    -10.17268  eV     1   --> A_1  D_1  S_1  
     e(  4 -  4) =     -6.38103  eV     1   --> B_1  D_3  S_3  
     e(  5 -  5) =      2.07372  eV     1   --> A_2  D_2  S_2  
     e(  6 -  6) =      5.13699  eV     1   --> A_1  D_1  S_1  
     e(  7 -  7) =      5.83200  eV     1   --> B_1  D_3  S_3  
     e(  8 -  8) =      6.03701  eV     1   --> A_1  D_1  S_1  

 **************************************************************************

 **************************************************************************

                    xk=(  -0.22171,   0.38402,   0.00000  )

     Band symmetry, C_2v (mm2)  point group:

     e(  1 -  1) =    -18.46371  eV     1   --> A_1  D_1  S_1  
     e(  2 -  2) =    -12.03992  eV     1   --> B_2  D_4  S_4  
     e(  3 -  3) =    -10.51129  eV     1   --> A_1  D_1  S_1  
     e(  4 -  4) =     -6.02279  eV     1   --> B_1  D_3  S_3  
     e(  5 -  5) =      1.60176  eV     1   --> A_2  D_2  S_2  
     e(  6 -  6) =      5.59543  eV     1   --> A_1  D_1  S_1  
     e(  7 -  7) =      6.28291  eV     1   --> B_1  D_3  S_3  
     e(  8 -  8) =      6.51103  eV     1   --> A_1  D_1  S_1  

 **************************************************************************

 **************************************************************************

                    xk=(  -0.23280,   0.40322,   0.00000  )

     Band symmetry, C_2v (mm2)  point group:

     e(  1 -  1) =    -18.12679  eV     1   --> A_1  D_1  S_1  
     e(  2 -  2) =    -12.39061  eV     1   --> B_2  D_4  S_4  
     e(  3 -  3) =    -10.84216  eV     1   --> A_1  D_1  S_1  
     e(  4 -  4) =     -5.65446  eV     1   --> B_1  D_3  S_3  
     e(  5 -  5) =      1.14053  eV     1   --> A_2  D_2  S_2  
     e(  6 -  6) =      6.07544  eV     1   --> A_1  D_1  S_1  
     e(  7 -  7) =      6.74692  eV     1   --> B_1  D_3  S_3  
     e(  8 -  8) =      7.00916  eV     1   --> A_1  D_1  S_1  

 **************************************************************************

 **************************************************************************

                    xk=(  -0.24388,   0.42242,   0.00000  )

     Band symmetry, C_2v (mm2)  point group:

     e(  1 -  1) =    -17.77746  eV     1   --> A_1  D_1  S_1  
     e(  2 -  2) =    -12.72919  eV     1   --> B_2  D_4  S_4  
     e(  3 -  3) =    -11.16342  eV     1   --> A_1  D_1  S_1  
     e(  4 -  4) =     -5.27808  eV     1   --> B_1  D_3  S_3  
     e(  5 -  5) =      0.69143  eV     1   --> A_2  D_2  S_2  
     e(  6 -  6) =      6.57620  eV     1   --> A_1  D_1  S_1  
     e(  7 -  7) =      7.21480  eV     1   --> B_1  D_3  S_3  
     e(  8 -  8) =      7.53132  eV     1   --> A_1  D_1  S_1  

 **************************************************************************

 **************************************************************************

                    xk=(  -0.25497,   0.44162,   0.00000  )

     Band symmetry, C_2v (mm2)  point group:

     e(  1 -  1) =    -17.41698  eV     1   --> A_1  D_1  S_1  
     e(  2 -  2) =    -13.05524  eV     1   --> B_2  D_4  S_4  
     e(  3 -  3) =    -11.47311  eV     1   --> A_1  D_1  S_1  
     e(  4 -  4) =     -4.89599  eV     1   --> B_1  D_3  S_3  
     e(  5 -  5) =      0.25568  eV     1   --> A_2  D_2  S_2  
     e(  6 -  6) =      7.09644  eV     1   --> A_1  D_1  S_1  
     e(  7 -  7) =      7.66594  eV     1   --> B_1  D_3  S_3  
     e(  8 -  8) =      8.07738  eV     1   --> A_1  D_1  S_1  

 **************************************************************************

 **************************************************************************

                    xk=(  -0.26605,   0.46082,   0.00000  )

     Band symmetry, C_2v (mm2)  point group:

     e(  1 -  1) =    -17.04719  eV     1   --> A_1  D_1  S_1  
     e(  2 -  2) =    -13.36832  eV     1   --> B_2  D_4  S_4  
     e(  3 -  3) =    -11.76881  eV     1   --> A_1  D_1  S_1  
     e(  4 -  4) =     -4.51099  eV     1   --> B_1  D_3  S_3  
     e(  5 -  5) =     -0.16573  eV     1   --> A_2  D_2  S_2  
     e(  6 -  6) =      7.63418  eV     1   --> A_1  D_1  S_1  
     e(  7 -  7) =      8.05436  eV     1   --> B_1  D_3  S_3  
     e(  8 -  8) =      8.64710  eV     1   --> A_1  D_1  S_1  

 **************************************************************************

 **************************************************************************

                    xk=(  -0.27714,   0.48002,   0.00000  )

     Band symmetry, C_2v (mm2)  point group:

     e(  1 -  1) =    -16.67069  eV     1   --> A_1  D_1  S_1  
     e(  2 -  2) =    -13.66811  eV     1   --> B_2  D_4  S_4  
     e(  3 -  3) =    -12.04777  eV     1   --> A_1  D_1  S_1  
     e(  4 -  4) =     -4.12618  eV     1   --> B_1  D_3  S_3  
     e(  5 -  5) =     -0.57176  eV     1   --> A_2  D_2  S_2  
     e(  6 -  6) =      8.18616  eV     1   --> A_1  D_1  S_1  
     e(  7 -  7) =      8.30687  eV     1   --> B_1  D_3  S_3  
     e(  8 -  8) =      9.24008  eV     1   --> A_1  D_1  S_1  

 **************************************************************************

 **************************************************************************

                    xk=(  -0.28822,   0.49922,   0.00000  )

     Band symmetry, C_2v (mm2)  point group:

     e(  1 -  1) =    -16.29140  eV     1   --> A_1  D_1  S_1  
     e(  2 -  2) =    -13.95438  eV     1   --> B_2  D_4  S_4  
     e(  3 -  3) =    -12.30590  eV     1   --> A_1  D_1  S_1  
     e(  4 -  4) =     -3.74522  eV     1   --> B_1  D_3  S_3  
     e(  5 -  5) =     -0.96182  eV     1   --> A_2  D_2  S_2  
     e(  6 -  6) =      8.39589  eV     1   --> B_1  D_3  S_3  
     e(  7 -  7) =      8.74655  eV     1   --> A_1  D_1  S_1  
     e(  8 -  8) =      9.85538  eV     1   --> A_1  D_1  S_1  

 **************************************************************************

 **************************************************************************

                    xk=(  -0.29931,   0.51842,   0.00000  )

     Band symmetry, C_2v (mm2)  point group:

     e(  1 -  1) =    -15.91566  eV     1   --> A_1  D_1  S_1  
     e(  2 -  2) =    -14.22680  eV     1   --> B_2  D_4  S_4  
     e(  3 -  3) =    -12.53690  eV     1   --> A_1  D_1  S_1  
     e(  4 -  4) =     -3.37223  eV     1   --> B_1  D_3  S_3  
     e(  5 -  5) =     -1.33478  eV     1   --> A_2  D_2  S_2  
     e(  6 -  6) =      8.38171  eV     1   --> B_1  D_3  S_3  
     e(  7 -  7) =      9.30407  eV     1   --> A_1  D_1  S_1  
     e(  8 -  8) =     10.48949  eV     1   --> A_1  D_1  S_1  

 **************************************************************************

 **************************************************************************

                    xk=(  -0.31040,   0.53762,   0.00000  )

     Band symmetry, C_2v (mm2)  point group:

     e(  1 -  1) =    -15.55424  eV     1   --> A_1  D_1  S_1  
     e(  2 -  2) =    -14.48520  eV     1   --> B_2  D_4  S_4  
     e(  3 -  3) =    -12.73037  eV     1   --> A_1  D_1  S_1  
     e(  4 -  4) =     -3.01171  eV     1   --> B_1  D_3  S_3  
     e(  5 -  5) =     -1.69017  eV     1   --> A_2  D_2  S_2  
     e(  6 -  6) =      8.33227  eV     1   --> B_1  D_3  S_3  
     e(  7 -  7) =      9.83454  eV     1   --> A_1  D_1  S_1  
     e(  8 -  8) =     10.66813  eV     1   --> B_2  D_4  S_4  

 **************************************************************************

 **************************************************************************

                    xk=(  -0.32148,   0.55682,   0.00000  )

     Band symmetry, C_2v (mm2)  point group:

     e(  1 -  1) =    -15.22560  eV     1   --> A_1  D_1  S_1  
     e(  2 -  2) =    -14.72948  eV     1   --> B_2  D_4  S_4  
     e(  3 -  3) =    -12.86863  eV     1   --> A_1  D_1  S_1  
     e(  4 -  4) =     -2.66821  eV     1   --> B_1  D_3  S_3  
     e(  5 -  5) =     -2.02753  eV     1   --> A_2  D_2  S_2  
     e(  6 -  6) =      8.28792  eV     1   --> B_1  D_3  S_3  
     e(  7 -  7) =     10.28143  eV     1   --> A_1  D_1  S_1  
     e(  8 -  8) =     10.62239  eV     1   --> B_2  D_4  S_4  

 **************************************************************************

 **************************************************************************

                    xk=(  -0.33257,   0.57602,   0.00000  )

     zone border point and non-symmorphic group 
     symmetry decomposition not available

 **************************************************************************

 **************************************************************************

                    xk=(  -0.32148,   0.57602,   0.00000  )

     zone border point and non-symmorphic group 
     symmetry decomposition not available

 **************************************************************************

 **************************************************************************

                    xk=(  -0.31040,   0.57602,   0.00000  )

     zone border point and non-symmorphic group 
     symmetry decomposition not available

 **************************************************************************

 **************************************************************************

                    xk=(  -0.29931,   0.57602,   0.00000  )

     zone border point and non-symmorphic group 
     symmetry decomposition not available

 **************************************************************************

 **************************************************************************

                    xk=(  -0.28822,   0.57602,   0.00000  )

     zone border point and non-symmorphic group 
     symmetry decomposition not available

 **************************************************************************

 **************************************************************************

                    xk=(  -0.27714,   0.57602,   0.00000  )

     zone border point and non-symmorphic group 
     symmetry decomposition not available

 **************************************************************************

 **************************************************************************

                    xk=(  -0.26605,   0.57602,   0.00000  )

     zone border point and non-symmorphic group 
     symmetry decomposition not available

 **************************************************************************

 **************************************************************************

                    xk=(  -0.25497,   0.57602,   0.00000  )

     zone border point and non-symmorphic group 
     symmetry decomposition not available

 **************************************************************************

 **************************************************************************

                    xk=(  -0.24388,   0.57602,   0.00000  )

     zone border point and non-symmorphic group 
     symmetry decomposition not available

 **************************************************************************

 **************************************************************************

                    xk=(  -0.23280,   0.57602,   0.00000  )

     zone border point and non-symmorphic group 
     symmetry decomposition not available

 **************************************************************************

 **************************************************************************

                    xk=(  -0.22171,   0.57602,   0.00000  )

     zone border point and non-symmorphic group 
     symmetry decomposition not available

 **************************************************************************

 **************************************************************************

                    xk=(  -0.21063,   0.57602,   0.00000  )

     zone border point and non-symmorphic group 
     symmetry decomposition not available

 **************************************************************************

 **************************************************************************

                    xk=(  -0.19954,   0.57602,   0.00000  )

     zone border point and non-symmorphic group 
     symmetry decomposition not available

 **************************************************************************

 **************************************************************************

                    xk=(  -0.18845,   0.57602,   0.00000  )

     zone border point and non-symmorphic group 
     symmetry decomposition not available

 **************************************************************************

 **************************************************************************

                    xk=(  -0.17737,   0.57602,   0.00000  )

     zone border point and non-symmorphic group 
     symmetry decomposition not available

 **************************************************************************

 **************************************************************************

                    xk=(  -0.16628,   0.57602,   0.00000  )

     zone border point and non-symmorphic group 
     symmetry decomposition not available

 **************************************************************************

 **************************************************************************

                    xk=(  -0.15520,   0.57602,   0.00000  )

     zone border point and non-symmorphic group 
     symmetry decomposition not available

 **************************************************************************

 **************************************************************************

                    xk=(  -0.14411,   0.57602,   0.00000  )

     zone border point and non-symmorphic group 
     symmetry decomposition not available

 **************************************************************************

 **************************************************************************

                    xk=(  -0.13303,   0.57602,   0.00000  )

     zone border point and non-symmorphic group 
     symmetry decomposition not available

 **************************************************************************

 **************************************************************************

                    xk=(  -0.12194,   0.57602,   0.00000  )

     zone border point and non-symmorphic group 
     symmetry decomposition not available

 **************************************************************************

 **************************************************************************

                    xk=(  -0.11086,   0.57602,   0.00000  )

     zone border point and non-symmorphic group 
     symmetry decomposition not available

 **************************************************************************

 **************************************************************************

                    xk=(  -0.09977,   0.57602,   0.00000  )

     zone border point and non-symmorphic group 
     symmetry decomposition not available

 **************************************************************************

 **************************************************************************

                    xk=(  -0.08868,   0.57602,   0.00000  )

     zone border point and non-symmorphic group 
     symmetry decomposition not available

 **************************************************************************

 **************************************************************************

                    xk=(  -0.07760,   0.57602,   0.00000  )

     zone border point and non-symmorphic group 
     symmetry decomposition not available

 **************************************************************************

 **************************************************************************

                    xk=(  -0.06651,   0.57602,   0.00000  )

     zone border point and non-symmorphic group 
     symmetry decomposition not available

 **************************************************************************

 **************************************************************************

                    xk=(  -0.05543,   0.57602,   0.00000  )

     zone border point and non-symmorphic group 
     symmetry decomposition not available

 **************************************************************************

 **************************************************************************

                    xk=(  -0.04434,   0.57602,   0.00000  )

     zone border point and non-symmorphic group 
     symmetry decomposition not available

 **************************************************************************

 **************************************************************************

                    xk=(  -0.03326,   0.57602,   0.00000  )

     zone border point and non-symmorphic group 
     symmetry decomposition not available

 **************************************************************************

 **************************************************************************

                    xk=(  -0.02217,   0.57602,   0.00000  )

     zone border point and non-symmorphic group 
     symmetry decomposition not available

 **************************************************************************

 **************************************************************************

                    xk=(  -0.01109,   0.57602,   0.00000  )

     zone border point and non-symmorphic group 
     symmetry decomposition not available

 **************************************************************************

 **************************************************************************

                    xk=(   0.00000,   0.57602,   0.00000  )

     zone border point and non-symmorphic group 
     symmetry decomposition not available

 **************************************************************************

 **************************************************************************

                    xk=(   0.00000,   0.55682,   0.00000  )

     point group C_2v (mm2) 
     there are  4 classes
     the character table:

       E     C2    s_v   s_v' 
A_1    1.00  1.00  1.00  1.00
A_2    1.00  1.00 -1.00 -1.00
B_1    1.00 -1.00  1.00 -1.00
B_2    1.00 -1.00 -1.00  1.00

     the symmetry operations in each class and the name of the first element:

     E        1
                                                                 
     C2       2
                                                                 
     s_v      3
                                                                 
     s_v'     4
                                                                 

     Band symmetry, C_2v (mm2)  point group:

     e(  1 -  1) =    -16.75109  eV     1   --> A_1  D_1  S_1  
     e(  2 -  2) =    -15.47966  eV     1   --> A_1  D_1  S_1  
     e(  3 -  3) =     -8.77730  eV     1   --> B_1  D_3  S_3  
     e(  4 -  4) =     -4.75266  eV     1   --> B_2  D_4  S_4  
     e(  5 -  5) =     -0.61291  eV     1   --> B_2  D_4  S_4  
     e(  6 -  6) =      5.04629  eV     1   --> A_1  D_1  S_1  
     e(  7 -  7) =      8.29320  eV     1   --> A_1  D_1  S_1  
     e(  8 -  8) =      9.06532  eV     1   --> B_2  D_4  S_4  

 **************************************************************************

 **************************************************************************

                    xk=(   0.00000,   0.53762,   0.00000  )

     Band symmetry, C_2v (mm2)  point group:

     e(  1 -  1) =    -17.00005  eV     1   --> A_1  D_1  S_1  
     e(  2 -  2) =    -15.20134  eV     1   --> A_1  D_1  S_1  
     e(  3 -  3) =     -8.75767  eV     1   --> B_1  D_3  S_3  
     e(  4 -  4) =     -4.87514  eV     1   --> B_2  D_4  S_4  
     e(  5 -  5) =     -0.45949  eV     1   --> B_2  D_4  S_4  
     e(  6 -  6) =      5.05618  eV     1   --> A_1  D_1  S_1  
     e(  7 -  7) =      7.80287  eV     1   --> A_1  D_1  S_1  
     e(  8 -  8) =      8.56885  eV     1   --> B_2  D_4  S_4  

 **************************************************************************

 **************************************************************************

                    xk=(   0.00000,   0.51842,   0.00000  )

     Band symmetry, C_2v (mm2)  point group:

     e(  1 -  1) =    -17.29352  eV     1   --> A_1  D_1  S_1  
     e(  2 -  2) =    -14.85911  eV     1   --> A_1  D_1  S_1  
     e(  3 -  3) =     -8.72508  eV     1   --> B_1  D_3  S_3  
     e(  4 -  4) =     -5.06133  eV     1   --> B_2  D_4  S_4  
     e(  5 -  5) =     -0.22236  eV     1   --> B_2  D_4  S_4  
     e(  6 -  6) =      5.07245  eV     1   --> A_1  D_1  S_1  
     e(  7 -  7) =      7.32581  eV     1   --> A_1  D_1  S_1  
     e(  8 -  8) =      8.08438  eV     1   --> B_2  D_4  S_4  

 **************************************************************************

 **************************************************************************

                    xk=(   0.00000,   0.49922,   0.00000  )

     Band symmetry, C_2v (mm2)  point group:

     e(  1 -  1) =    -17.59788  eV     1   --> A_1  D_1  S_1  
     e(  2 -  2) =    -14.48676  eV     1   --> A_1  D_1  S_1  
     e(  3 -  3) =     -8.67955  eV     1   --> B_1  D_3  S_3  
     e(  4 -  4) =     -5.29275  eV     1   --> B_2  D_4  S_4  
     e(  5 -  5) =      0.08002  eV     1   --> B_2  D_4  S_4  
     e(  6 -  6) =      5.09468  eV     1   --> A_1  D_1  S_1  
     e(  7 -  7) =      6.86424  eV     1   --> A_1  D_1  S_1  
     e(  8 -  8) =      7.61471  eV     1   --> B_2  D_4  S_4  

 **************************************************************************

 **************************************************************************

                    xk=(   0.00000,   0.48002,   0.00000  )

     Band symmetry, C_2v (mm2)  point group:

     e(  1 -  1) =    -17.90135  eV     1   --> A_1  D_1  S_1  
     e(  2 -  2) =    -14.09623  eV     1   --> A_1  D_1  S_1  
     e(  3 -  3) =     -8.62126  eV     1   --> B_1  D_3  S_3  
     e(  4 -  4) =     -5.55358  eV     1   --> B_2  D_4  S_4  
     e(  5 -  5) =      0.43108  eV     1   --> B_2  D_4  S_4  
     e(  6 -  6) =      5.12220  eV     1   --> A_1  D_1  S_1  
     e(  7 -  7) =      6.41950  eV     1   --> A_1  D_1  S_1  
     e(  8 -  8) =      7.16090  eV     1   --> B_2  D_4  S_4  

 **************************************************************************

 **************************************************************************

                    xk=(   0.00000,   0.46082,   0.00000  )

     Band symmetry, C_2v (mm2)  point group:

     e(  1 -  1) =    -18.19906  eV     1   --> A_1  D_1  S_1  
     e(  2 -  2) =    -13.69284  eV     1   --> A_1  D_1  S_1  
     e(  3 -  3) =     -8.55043  eV     1   --> B_1  D_3  S_3  
     e(  4 -  4) =     -5.83165  eV     1   --> B_2  D_4  S_4  
     e(  5 -  5) =      0.81815  eV     1   --> B_2  D_4  S_4  
     e(  6 -  6) =      5.15278  eV     1   --> A_1  D_1  S_1  
     e(  7 -  7) =      5.99388  eV     1   --> A_1  D_1  S_1  
     e(  8 -  8) =      6.72358  eV     1   --> B_2  D_4  S_4  

 **************************************************************************

 **************************************************************************

                    xk=(   0.00000,   0.44162,   0.00000  )

     Band symmetry, C_2v (mm2)  point group:

     e(  1 -  1) =    -18.48859  eV     1   --> A_1  D_1  S_1  
     e(  2 -  2) =    -13.27944  eV     1   --> A_1  D_1  S_1  
     e(  3 -  3) =     -8.46726  eV     1   --> B_1  D_3  S_3  
     e(  4 -  4) =     -6.11820  eV     1   --> B_2  D_4  S_4  
     e(  5 -  5) =      1.23149  eV     1   --> B_2  D_4  S_4  
     e(  6 -  6) =      5.17675  eV     1   --> A_1  D_1  S_1  
     e(  7 -  7) =      5.59700  eV     1   --> A_1  D_1  S_1  
     e(  8 -  8) =      6.30320  eV     1   --> B_2  D_4  S_4  

 **************************************************************************

 **************************************************************************

                    xk=(   0.00000,   0.42242,   0.00000  )

     Band symmetry, C_2v (mm2)  point group:

     e(  1 -  1) =    -18.76858  eV     1   --> A_1  D_1  S_1  
     e(  2 -  2) =    -12.85774  eV     1   --> A_1  D_1  S_1  
     e(  3 -  3) =     -8.37208  eV     1   --> B_1  D_3  S_3  
     e(  4 -  4) =     -6.40704  eV     1   --> B_2  D_4  S_4  
     e(  5 -  5) =      1.66414  eV     1   --> B_2  D_4  S_4  
     e(  6 -  6) =      5.08846  eV     1   --> A_1  D_1  S_1  
     e(  7 -  7) =      5.33396  eV     1   --> A_1  D_1  S_1  
     e(  8 -  8) =      5.90013  eV     1   --> B_2  D_4  S_4  

 **************************************************************************

 **************************************************************************

                    xk=(   0.00000,   0.40322,   0.00000  )

     Band symmetry, C_2v (mm2)  point group:

     e(  1 -  1) =    -19.03826  eV     1   --> A_1  D_1  S_1  
     e(  2 -  2) =    -12.42921  eV     1   --> A_1  D_1  S_1  
     e(  3 -  3) =     -8.26548  eV     1   --> B_1  D_3  S_3  
     e(  4 -  4) =     -6.69395  eV     1   --> B_2  D_4  S_4  
     e(  5 -  5) =      2.11019  eV     1   --> B_2  D_4  S_4  
     e(  6 -  6) =      4.76079  eV     1   --> A_1  D_1  S_1  
     e(  7 -  7) =      5.32936  eV     1   --> A_1  D_1  S_1  
     e(  8 -  8) =      5.51474  eV     1   --> B_2  D_4  S_4  

 **************************************************************************

 **************************************************************************

                    xk=(   0.00000,   0.38402,   0.00000  )

     Band symmetry, C_2v (mm2)  point group:

     e(  1 -  1) =    -19.29699  eV     1   --> A_1  D_1  S_1  
     e(  2 -  2) =    -11.99533  eV     1   --> A_1  D_1  S_1  
     e(  3 -  3) =     -8.14773  eV     1   --> B_1  D_3  S_3  
     e(  4 -  4) =     -6.97568  eV     1   --> B_2  D_4  S_4  
     e(  5 -  5) =      2.56495  eV     1   --> B_2  D_4  S_4  
     e(  6 -  6) =      4.40713  eV     1   --> A_1  D_1  S_1  
     e(  7 -  7) =      5.14756  eV     1   --> B_2  D_4  S_4  
     e(  8 -  8) =      5.27508  eV     1   --> A_1  D_1  S_1  

 **************************************************************************

 **************************************************************************

                    xk=(   0.00000,   0.36481,   0.00000  )

     Band symmetry, C_2v (mm2)  point group:

     e(  1 -  1) =    -19.54444  eV     1   --> A_1  D_1  S_1  
     e(  2 -  2) =    -11.55712  eV     1   --> A_1  D_1  S_1  
     e(  3 -  3) =     -8.01929  eV     1   --> B_1  D_3  S_3  
     e(  4 -  4) =     -7.25003  eV     1   --> B_2  D_4  S_4  
     e(  5 -  5) =      3.02359  eV     1   --> B_2  D_4  S_4  
     e(  6 -  6) =      4.06462  eV     1   --> A_1  D_1  S_1  
     e(  7 -  7) =      4.79974  eV     1   --> B_2  D_4  S_4  
     e(  8 -  8) =      4.93581  eV     1   --> A_1  D_1  S_1  

 **************************************************************************

 **************************************************************************

                    xk=(   0.00000,   0.34561,   0.00000  )

     Band symmetry, C_2v (mm2)  point group:

     e(  1 -  1) =    -19.78025  eV     1   --> A_1  D_1  S_1  
     e(  2 -  2) =    -11.11609  eV     1   --> A_1  D_1  S_1  
     e(  3 -  3) =     -7.88070  eV     1   --> B_1  D_3  S_3  
     e(  4 -  4) =     -7.51511  eV     1   --> B_2  D_4  S_4  
     e(  5 -  5) =      3.47831  eV     1   --> B_2  D_4  S_4  
     e(  6 -  6) =      3.73763  eV     1   --> A_1  D_1  S_1  
     e(  7 -  7) =      4.47547  eV     1   --> B_2  D_4  S_4  
     e(  8 -  8) =      4.60022  eV     1   --> A_1  D_1  S_1  

 **************************************************************************

 **************************************************************************

                    xk=(   0.00000,   0.32641,   0.00000  )

     Band symmetry, C_2v (mm2)  point group:

     e(  1 -  1) =    -20.00419  eV     1   --> A_1  D_1  S_1  
     e(  2 -  2) =    -10.67376  eV     1   --> A_1  D_1  S_1  
     e(  3 -  3) =     -7.76974  eV     1   --> B_2  D_4  S_4  
     e(  4 -  4) =     -7.73306  eV     1   --> B_1  D_3  S_3  
     e(  5 -  5) =      3.42730  eV     1   --> A_1  D_1  S_1  
     e(  6 -  6) =      3.87978  eV     1   --> B_2  D_4  S_4  
     e(  7 -  7) =      4.21904  eV     1   --> B_2  D_4  S_4  
     e(  8 -  8) =      4.28164  eV     1   --> A_1  D_1  S_1  

 **************************************************************************

 **************************************************************************

                    xk=(   0.00000,   0.30721,   0.00000  )

     Band symmetry, C_2v (mm2)  point group:

     e(  1 -  1) =    -20.21606  eV     1   --> A_1  D_1  S_1  
     e(  2 -  2) =    -10.23138  eV     1   --> A_1  D_1  S_1  
     e(  3 -  3) =     -8.01281  eV     1   --> B_2  D_4  S_4  
     e(  4 -  4) =     -7.57697  eV     1   --> B_1  D_3  S_3  
     e(  5 -  5) =      3.13411  eV     1   --> A_1  D_1  S_1  
     e(  6 -  6) =      3.80511  eV     1   --> B_2  D_4  S_4  
     e(  7 -  7) =      3.98093  eV     1   --> A_1  D_1  S_1  
     e(  8 -  8) =      4.44070  eV     1   --> B_2  D_4  S_4  

 **************************************************************************

 **************************************************************************

                    xk=(   0.00000,   0.28801,   0.00000  )

     Band symmetry, C_2v (mm2)  point group:

     e(  1 -  1) =    -20.41571  eV     1   --> A_1  D_1  S_1  
     e(  2 -  2) =     -9.79086  eV     1   --> A_1  D_1  S_1  
     e(  3 -  3) =     -8.24359  eV     1   --> B_2  D_4  S_4  
     e(  4 -  4) =     -7.41358  eV     1   --> B_1  D_3  S_3  
     e(  5 -  5) =      2.85827  eV     1   --> A_1  D_1  S_1  
     e(  6 -  6) =      3.54319  eV     1   --> B_2  D_4  S_4  
     e(  7 -  7) =      3.69831  eV     1   --> A_1  D_1  S_1  
     e(  8 -  8) =      4.63219  eV     1   --> B_2  D_4  S_4  

 **************************************************************************

 **************************************************************************

                    xk=(   0.00000,   0.26881,   0.00000  )

     Band symmetry, C_2v (mm2)  point group:

     e(  1 -  1) =    -20.60298  eV     1   --> A_1  D_1  S_1  
     e(  2 -  2) =     -9.35400  eV     1   --> A_1  D_1  S_1  
     e(  3 -  3) =     -8.46142  eV     1   --> B_2  D_4  S_4  
     e(  4 -  4) =     -7.24371  eV     1   --> B_1  D_3  S_3  
     e(  5 -  5) =      2.59995  eV     1   --> A_1  D_1  S_1  
     e(  6 -  6) =      3.28621  eV     1   --> B_2  D_4  S_4  
     e(  7 -  7) =      3.43384  eV     1   --> A_1  D_1  S_1  
     e(  8 -  8) =      4.41195  eV     1   --> B_2  D_4  S_4  

 **************************************************************************

 **************************************************************************

                    xk=(   0.00000,   0.24961,   0.00000  )

     Band symmetry, C_2v (mm2)  point group:

     e(  1 -  1) =    -20.77776  eV     1   --> A_1  D_1  S_1  
     e(  2 -  2) =     -8.92289  eV     1   --> A_1  D_1  S_1  
     e(  3 -  3) =     -8.66577  eV     1   --> B_2  D_4  S_4  
     e(  4 -  4) =     -7.06906  eV     1   --> B_1  D_3  S_3  
     e(  5 -  5) =      2.35924  eV     1   --> A_1  D_1  S_1  
     e(  6 -  6) =      3.04432  eV     1   --> B_2  D_4  S_4  
     e(  7 -  7) =      3.18758  eV     1   --> A_1  D_1  S_1  
     e(  8 -  8) =      4.17557  eV     1   --> B_2  D_4  S_4  

 **************************************************************************

 **************************************************************************

                    xk=(   0.00000,   0.23041,   0.00000  )

     Band symmetry, C_2v (mm2)  point group:

     e(  1 -  1) =    -20.93995  eV     1   --> A_1  D_1  S_1  
     e(  2 -  2) =     -8.85621  eV     1   --> B_2  D_4  S_4  
     e(  3 -  3) =     -8.50018  eV     1   --> A_1  D_1  S_1  
     e(  4 -  4) =     -6.89105  eV     1   --> B_1  D_3  S_3  
     e(  5 -  5) =      2.13620  eV     1   --> A_1  D_1  S_1  
     e(  6 -  6) =      2.81934  eV     1   --> B_2  D_4  S_4  
     e(  7 -  7) =      2.95953  eV     1   --> A_1  D_1  S_1  
     e(  8 -  8) =      3.95281  eV     1   --> B_2  D_4  S_4  

 **************************************************************************

 **************************************************************************

                    xk=(   0.00000,   0.21121,   0.00000  )

     Band symmetry, C_2v (mm2)  point group:

     e(  1 -  1) =    -21.08948  eV     1   --> A_1  D_1  S_1  
     e(  2 -  2) =     -9.03247  eV     1   --> B_2  D_4  S_4  
     e(  3 -  3) =     -8.08856  eV     1   --> A_1  D_1  S_1  
     e(  4 -  4) =     -6.71159  eV     1   --> B_1  D_3  S_3  
     e(  5 -  5) =      1.93088  eV     1   --> A_1  D_1  S_1  
     e(  6 -  6) =      2.61187  eV     1   --> B_2  D_4  S_4  
     e(  7 -  7) =      2.74971  eV     1   --> A_1  D_1  S_1  
     e(  8 -  8) =      3.74665  eV     1   --> B_2  D_4  S_4  

 **************************************************************************

 **************************************************************************

                    xk=(   0.00000,   0.19201,   0.00000  )

     Band symmetry, C_2v (mm2)  point group:

     e(  1 -  1) =    -21.22621  eV     1   --> A_1  D_1  S_1  
     e(  2 -  2) =     -9.19410  eV     1   --> B_2  D_4  S_4  
     e(  3 -  3) =     -7.69106  eV     1   --> A_1  D_1  S_1  
     e(  4 -  4) =     -6.53254  eV     1   --> B_1  D_3  S_3  
     e(  5 -  5) =      1.74334  eV     1   --> A_1  D_1  S_1  
     e(  6 -  6) =      2.42217  eV     1   --> B_2  D_4  S_4  
     e(  7 -  7) =      2.55813  eV     1   --> A_1  D_1  S_1  
     e(  8 -  8) =      3.55790  eV     1   --> B_2  D_4  S_4  

 **************************************************************************

 **************************************************************************

                    xk=(   0.00000,   0.17281,   0.00000  )

     Band symmetry, C_2v (mm2)  point group:

     e(  1 -  1) =    -21.35011  eV     1   --> A_1  D_1  S_1  
     e(  2 -  2) =     -9.34091  eV     1   --> B_2  D_4  S_4  
     e(  3 -  3) =     -7.31116  eV     1   --> A_1  D_1  S_1  
     e(  4 -  4) =     -6.35655  eV     1   --> B_1  D_3  S_3  
     e(  5 -  5) =      1.57360  eV     1   --> A_1  D_1  S_1  
     e(  6 -  6) =      2.25037  eV     1   --> B_2  D_4  S_4  
     e(  7 -  7) =      2.38479  eV     1   --> A_1  D_1  S_1  
     e(  8 -  8) =      3.38684  eV     1   --> B_2  D_4  S_4  

 **************************************************************************

 **************************************************************************

                    xk=(   0.00000,   0.15361,   0.00000  )

     Band symmetry, C_2v (mm2)  point group:

     e(  1 -  1) =    -21.46113  eV     1   --> A_1  D_1  S_1  
     e(  2 -  2) =     -9.47278  eV     1   --> B_2  D_4  S_4  
     e(  3 -  3) =     -6.95289  eV     1   --> A_1  D_1  S_1  
     e(  4 -  4) =     -6.18618  eV     1   --> B_1  D_3  S_3  
     e(  5 -  5) =      1.42169  eV     1   --> A_1  D_1  S_1  
     e(  6 -  6) =      2.09653  eV     1   --> B_2  D_4  S_4  
     e(  7 -  7) =      2.22970  eV     1   --> A_1  D_1  S_1  
     e(  8 -  8) =      3.23362  eV     1   --> B_2  D_4  S_4  

 **************************************************************************

 **************************************************************************

                    xk=(   0.00000,   0.13441,   0.00000  )

     Band symmetry, C_2v (mm2)  point group:

     e(  1 -  1) =    -21.55922  eV     1   --> A_1  D_1  S_1  
     e(  2 -  2) =     -9.58951  eV     1   --> B_2  D_4  S_4  
     e(  3 -  3) =     -6.62060  eV     1   --> A_1  D_1  S_1  
     e(  4 -  4) =     -6.02441  eV     1   --> B_1  D_3  S_3  
     e(  5 -  5) =      1.28763  eV     1   --> A_1  D_1  S_1  
     e(  6 -  6) =      1.96072  eV     1   --> B_2  D_4  S_4  
     e(  7 -  7) =      2.09285  eV     1   --> A_1  D_1  S_1  
     e(  8 -  8) =      3.09832  eV     1   --> B_2  D_4  S_4  

 **************************************************************************

 **************************************************************************

                    xk=(   0.00000,   0.11520,   0.00000  )

     Band symmetry, C_2v (mm2)  point group:

     e(  1 -  1) =    -21.64433  eV     1   --> A_1  D_1  S_1  
     e(  2 -  2) =     -9.69099  eV     1   --> B_2  D_4  S_4  
     e(  3 -  3) =     -6.31861  eV     1   --> A_1  D_1  S_1  
     e(  4 -  4) =     -5.87419  eV     1   --> B_1  D_3  S_3  
     e(  5 -  5) =      1.17142  eV     1   --> A_1  D_1  S_1  
     e(  6 -  6) =      1.84297  eV     1   --> B_2  D_4  S_4  
     e(  7 -  7) =      1.97425  eV     1   --> A_1  D_1  S_1  
     e(  8 -  8) =      2.98099  eV     1   --> B_2  D_4  S_4  

 **************************************************************************

 **************************************************************************

                    xk=(   0.00000,   0.09600,   0.00000  )

     Band symmetry, C_2v (mm2)  point group:

     e(  1 -  1) =    -21.71638  eV     1   --> A_1  D_1  S_1  
     e(  2 -  2) =     -9.77696  eV     1   --> B_2  D_4  S_4  
     e(  3 -  3) =     -6.05177  eV     1   --> A_1  D_1  S_1  
     e(  4 -  4) =     -5.73926  eV     1   --> B_1  D_3  S_3  
     e(  5 -  5) =      1.07310  eV     1   --> A_1  D_1  S_1  
     e(  6 -  6) =      1.74330  eV     1   --> B_2  D_4  S_4  
     e(  7 -  7) =      1.87389  eV     1   --> A_1  D_1  S_1  
     e(  8 -  8) =      2.88168  eV     1   --> B_2  D_4  S_4  

 **************************************************************************

 **************************************************************************

                    xk=(   0.00000,   0.07680,   0.00000  )

     Band symmetry, C_2v (mm2)  point group:

     e(  1 -  1) =    -21.77537  eV     1   --> A_1  D_1  S_1  
     e(  2 -  2) =     -9.84742  eV     1   --> B_2  D_4  S_4  
     e(  3 -  3) =     -5.82497  eV     1   --> A_1  D_1  S_1  
     e(  4 -  4) =     -5.62287  eV     1   --> B_1  D_3  S_3  
     e(  5 -  5) =      0.99265  eV     1   --> A_1  D_1  S_1  
     e(  6 -  6) =      1.66174  eV     1   --> B_2  D_4  S_4  
     e(  7 -  7) =      1.79179  eV     1   --> A_1  D_1  S_1  
     e(  8 -  8) =      2.80040  eV     1   --> B_2  D_4  S_4  

 **************************************************************************

 **************************************************************************

                    xk=(   0.00000,   0.05760,   0.00000  )

     Band symmetry, C_2v (mm2)  point group:

     e(  1 -  1) =    -21.82130  eV     1   --> A_1  D_1  S_1  
     e(  2 -  2) =     -9.90232  eV     1   --> B_2  D_4  S_4  
     e(  3 -  3) =     -5.64284  eV     1   --> A_1  D_1  S_1  
     e(  4 -  4) =     -5.52811  eV     1   --> B_1  D_3  S_3  
     e(  5 -  5) =      0.93008  eV     1   --> A_1  D_1  S_1  
     e(  6 -  6) =      1.59829  eV     1   --> B_2  D_4  S_4  
     e(  7 -  7) =      1.72793  eV     1   --> A_1  D_1  S_1  
     e(  8 -  8) =      2.73716  eV     1   --> B_2  D_4  S_4  

 **************************************************************************

 **************************************************************************

                    xk=(   0.00000,   0.03840,   0.00000  )

     Band symmetry, C_2v (mm2)  point group:

     e(  1 -  1) =    -21.85411  eV     1   --> A_1  D_1  S_1  
     e(  2 -  2) =     -9.94157  eV     1   --> B_2  D_4  S_4  
     e(  3 -  3) =     -5.50951  eV     1   --> A_1  D_1  S_1  
     e(  4 -  4) =     -5.45811  eV     1   --> B_1  D_3  S_3  
     e(  5 -  5) =      0.88539  eV     1   --> A_1  D_1  S_1  
     e(  6 -  6) =      1.55296  eV     1   --> B_2  D_4  S_4  
     e(  7 -  7) =      1.68232  eV     1   --> A_1  D_1  S_1  
     e(  8 -  8) =      2.69198  eV     1   --> B_2  D_4  S_4  

 **************************************************************************

 **************************************************************************

                    xk=(   0.00000,   0.01920,   0.00000  )

     Band symmetry, C_2v (mm2)  point group:

     e(  1 -  1) =    -21.87380  eV     1   --> A_1  D_1  S_1  
     e(  2 -  2) =     -9.96512  eV     1   --> B_2  D_4  S_4  
     e(  3 -  3) =     -5.42796  eV     1   --> A_1  D_1  S_1  
     e(  4 -  4) =     -5.41517  eV     1   --> B_1  D_3  S_3  
     e(  5 -  5) =      0.85858  eV     1   --> A_1  D_1  S_1  
     e(  6 -  6) =      1.52576  eV     1   --> B_2  D_4  S_4  
     e(  7 -  7) =      1.65496  eV     1   --> A_1  D_1  S_1  
     e(  8 -  8) =      2.66488  eV     1   --> B_2  D_4  S_4  

 **************************************************************************

 **************************************************************************

                    xk=(   0.00000,   0.00000,   0.00000  )

     point group D_6h(6/mmm)
     there are 12 classes
     the character table:

       E     2C6   2C3   C2    3C2'  3C2'' i     2S3   2S6   s_h   3s_d  3s_v 
A_1g   1.00  1.00  1.00  1.00  1.00  1.00  1.00  1.00  1.00  1.00  1.00  1.00
A_2g   1.00  1.00  1.00  1.00 -1.00 -1.00  1.00  1.00  1.00  1.00 -1.00 -1.00
B_1g   1.00 -1.00  1.00 -1.00  1.00 -1.00  1.00 -1.00  1.00 -1.00  1.00 -1.00
B_2g   1.00 -1.00  1.00 -1.00 -1.00  1.00  1.00 -1.00  1.00 -1.00 -1.00  1.00
E_1g   2.00  1.00 -1.00 -2.00  0.00  0.00  2.00  1.00 -1.00 -2.00  0.00  0.00
E_2g   2.00 -1.00 -1.00  2.00  0.00  0.00  2.00 -1.00 -1.00  2.00  0.00  0.00
A_1u   1.00  1.00  1.00  1.00  1.00  1.00 -1.00 -1.00 -1.00 -1.00 -1.00 -1.00
A_2u   1.00  1.00  1.00  1.00 -1.00 -1.00 -1.00 -1.00 -1.00 -1.00  1.00  1.00
B_1u   1.00 -1.00  1.00 -1.00  1.00 -1.00 -1.00  1.00 -1.00  1.00 -1.00  1.00
B_2u   1.00 -1.00  1.00 -1.00 -1.00  1.00 -1.00  1.00 -1.00  1.00  1.00 -1.00
E_1u   2.00  1.00 -1.00 -2.00  0.00  0.00 -2.00 -1.00  1.00  2.00  0.00  0.00
E_2u   2.00 -1.00 -1.00  2.00  0.00  0.00 -2.00  1.00  1.00 -2.00  0.00  0.00

     the symmetry operations in each class and the name of the first element:

     E        1
                                                                 
     2C6      5    6
                                                                 
     2C3      7    8
                                                                 
     C2       2
                                                                 
     3C2'     4   12   11
                                                                 
     3C2''    3    9   10
                                                                 
     i       13
                                                                 
     2S3     17   18
                                                                 
     2S6     19   20
                                                                 
     s_h     14
                                                                 
     3s_d    16   24   23
                                                                 
     3s_v    15   21   22
                                                                 

     Band symmetry, D_6h(6/mmm) point group:

     e(  1 -  1) =    -21.88035  eV     1   --> A_1g           
     e(  2 -  2) =     -9.97296  eV     1   --> A_2u           
     e(  3 -  4) =     -5.40051  eV     2   --> E_2g           
     e(  5 -  5) =      0.84965  eV     1   --> A_1g           
     e(  6 -  6) =      1.51669  eV     1   --> A_2u           
     e(  7 -  7) =      1.64584  eV     1   --> A_1g           
     e(  8 -  8) =      2.65584  eV     1   --> A_2u           

 **************************************************************************
 
     BANDS        :     26.89s CPU     27.79s WALL

 
   This run was terminated on:  15:27: 1  24Jul2019            

=------------------------------------------------------------------------------=
   JOB DONE.
=------------------------------------------------------------------------------=
