
     Program PWSCF v.6.4.1 starts on 24Jul2019 at 14:31:55 

     This program is part of the open-source Quantum ESPRESSO suite
     for quantum simulation of materials; please cite
         "P. Giannozzi et al., J. Phys.:Condens. Matter 21 395502 (2009);
         "P. Giannozzi et al., J. Phys.:Condens. Matter 29 465901 (2017);
          URL http://www.quantum-espresso.org", 
     in publications or presentations arising from this work. More details at
     http://www.quantum-espresso.org/quote

     Parallel version (MPI), running on     4 processors

     MPI processes distributed on     1 nodes
     R & G space division:  proc/nbgrp/npool/nimage =       4
     Reading input from graphene.3_nscf.in

     Current dimensions of program PWSCF are:
     Max number of different atomic species (ntypx) = 10
     Max number of k-points (npk) =  40000
     Max angular momentum in pseudopotentials (lmaxx) =  3
               file C.pbe-n-kjpaw_psl.1.0.0.UPF: wavefunction(s)  2S 2P renormalized

     Subspace diagonalization in iterative solution of the eigenvalue problem:
     a serial algorithm will be used

     Message from routine setup:
     DEPRECATED: symmetry with ibrav=0, use correct ibrav instead
 
     Parallelization info
     --------------------
     sticks:   dense  smooth     PW     G-vecs:    dense   smooth      PW
     Min         148      60     21                23978     6080    1139
     Max         149      61     22                24003     6101    1152
     Sum         595     241     85                95959    24345    4587
 


     bravais-lattice index     =            0
     lattice parameter (alat)  =       4.6487  a.u.
     unit-cell volume          =     710.6031 (a.u.)^3
     number of atoms/cell      =            2
     number of atomic types    =            1
     number of electrons       =         8.00
     number of Kohn-Sham states=            8
     kinetic-energy cutoff     =      40.0000  Ry
     charge density cutoff     =     400.0000  Ry
     convergence threshold     =      1.0E-10
     mixing beta               =       0.3000
     number of iterations used =            8  plain     mixing
     Exchange-correlation      = SLA PW PBX PBC ( 1  4  3  4 0 0)

     celldm(1)=   4.648726  celldm(2)=   0.000000  celldm(3)=   0.000000
     celldm(4)=   0.000000  celldm(5)=   0.000000  celldm(6)=   0.000000

     crystal axes: (cart. coord. in units of alat)
               a(1) = (   1.002305   0.000000   0.000000 )  
               a(2) = (  -0.501152   0.868021   0.000000 )  
               a(3) = (   0.000000   0.000000   8.130081 )  

     reciprocal axes: (cart. coord. in units 2 pi/alat)
               b(1) = (  0.997700  0.576023  0.000000 )  
               b(2) = (  0.000000  1.152045  0.000000 )  
               b(3) = (  0.000000  0.000000  0.123000 )  


     PseudoPot. # 1 for C  read from file:
     /home/bngjn/qe/SSSP_precision_pseudos/C.pbe-n-kjpaw_psl.1.0.0.UPF
     MD5 check sum: 5d2aebdfa2cae82b50a7e79e9516da0f
     Pseudo is Projector augmented-wave + core cor, Zval =  4.0
     Generated using "atomic" code by A. Dal Corso v.5.1
     Shape of augmentation charge: PSQ
     Using radial grid of 1073 points,  4 beta functions with: 
                l(1) =   0
                l(2) =   0
                l(3) =   1
                l(4) =   1
     Q(r) pseudized with 0 coefficients 


     atomic species   valence    mass     pseudopotential
        C              4.00    12.01070     C ( 1.00)

     24 Sym. Ops., with inversion, found (18 have fractional translation)



   Cartesian axes

     site n.     atom                  positions (alat units)
         1           C   tau(   1) = (   0.0000000   0.0000000   2.0325203  )
         2           C   tau(   2) = (  -0.0000000   0.5786810   2.0325203  )

     number of k points=    91  Marzari-Vanderbilt smearing, width (Ry)=  0.0001
                       cart. coord. in units 2pi/alat
        k(    1) = (   0.0000000   0.0000000   0.0000000), wk =   0.0022222
        k(    2) = (   0.0000000   0.0384015   0.0000000), wk =   0.0133333
        k(    3) = (   0.0000000   0.0768030   0.0000000), wk =   0.0133333
        k(    4) = (   0.0000000   0.1152045   0.0000000), wk =   0.0133333
        k(    5) = (   0.0000000   0.1536060   0.0000000), wk =   0.0133333
        k(    6) = (   0.0000000   0.1920075   0.0000000), wk =   0.0133333
        k(    7) = (   0.0000000   0.2304090   0.0000000), wk =   0.0133333
        k(    8) = (   0.0000000   0.2688106   0.0000000), wk =   0.0133333
        k(    9) = (   0.0000000   0.3072121   0.0000000), wk =   0.0133333
        k(   10) = (   0.0000000   0.3456136   0.0000000), wk =   0.0133333
        k(   11) = (   0.0000000   0.3840151   0.0000000), wk =   0.0133333
        k(   12) = (   0.0000000   0.4224166   0.0000000), wk =   0.0133333
        k(   13) = (   0.0000000   0.4608181   0.0000000), wk =   0.0133333
        k(   14) = (   0.0000000   0.4992196   0.0000000), wk =   0.0133333
        k(   15) = (   0.0000000   0.5376211   0.0000000), wk =   0.0133333
        k(   16) = (   0.0000000  -0.5760226   0.0000000), wk =   0.0066667
        k(   17) = (   0.0332567   0.0576023   0.0000000), wk =   0.0133333
        k(   18) = (   0.0332567   0.0960038   0.0000000), wk =   0.0266667
        k(   19) = (   0.0332567   0.1344053   0.0000000), wk =   0.0266667
        k(   20) = (   0.0332567   0.1728068   0.0000000), wk =   0.0266667
        k(   21) = (   0.0332567   0.2112083   0.0000000), wk =   0.0266667
        k(   22) = (   0.0332567   0.2496098   0.0000000), wk =   0.0266667
        k(   23) = (   0.0332567   0.2880113   0.0000000), wk =   0.0266667
        k(   24) = (   0.0332567   0.3264128   0.0000000), wk =   0.0266667
        k(   25) = (   0.0332567   0.3648143   0.0000000), wk =   0.0266667
        k(   26) = (   0.0332567   0.4032158   0.0000000), wk =   0.0266667
        k(   27) = (   0.0332567   0.4416173   0.0000000), wk =   0.0266667
        k(   28) = (   0.0332567   0.4800188   0.0000000), wk =   0.0266667
        k(   29) = (   0.0332567   0.5184204   0.0000000), wk =   0.0266667
        k(   30) = (   0.0332567   0.5568219   0.0000000), wk =   0.0266667
        k(   31) = (   0.0665134   0.1152045   0.0000000), wk =   0.0133333
        k(   32) = (   0.0665134   0.1536060   0.0000000), wk =   0.0266667
        k(   33) = (   0.0665134   0.1920075   0.0000000), wk =   0.0266667
        k(   34) = (   0.0665134   0.2304090   0.0000000), wk =   0.0266667
        k(   35) = (   0.0665134   0.2688106   0.0000000), wk =   0.0266667
        k(   36) = (   0.0665134   0.3072121   0.0000000), wk =   0.0266667
        k(   37) = (   0.0665134   0.3456136   0.0000000), wk =   0.0266667
        k(   38) = (   0.0665134   0.3840151   0.0000000), wk =   0.0266667
        k(   39) = (   0.0665134   0.4224166   0.0000000), wk =   0.0266667
        k(   40) = (   0.0665134   0.4608181   0.0000000), wk =   0.0266667
        k(   41) = (   0.0665134   0.4992196   0.0000000), wk =   0.0266667
        k(   42) = (   0.0665134   0.5376211   0.0000000), wk =   0.0266667
        k(   43) = (   0.0665134   0.5760226   0.0000000), wk =   0.0133333
        k(   44) = (   0.0997700   0.1728068   0.0000000), wk =   0.0133333
        k(   45) = (   0.0997700   0.2112083   0.0000000), wk =   0.0266667
        k(   46) = (   0.0997700   0.2496098   0.0000000), wk =   0.0266667
        k(   47) = (   0.0997700   0.2880113   0.0000000), wk =   0.0266667
        k(   48) = (   0.0997700   0.3264128   0.0000000), wk =   0.0266667
        k(   49) = (   0.0997700   0.3648143   0.0000000), wk =   0.0266667
        k(   50) = (   0.0997700   0.4032158   0.0000000), wk =   0.0266667
        k(   51) = (   0.0997700   0.4416173   0.0000000), wk =   0.0266667
        k(   52) = (   0.0997700   0.4800188   0.0000000), wk =   0.0266667
        k(   53) = (   0.0997700   0.5184204   0.0000000), wk =   0.0266667
        k(   54) = (   0.0997700   0.5568219   0.0000000), wk =   0.0266667
        k(   55) = (   0.1330267   0.2304090   0.0000000), wk =   0.0133333
        k(   56) = (   0.1330267   0.2688106   0.0000000), wk =   0.0266667
        k(   57) = (   0.1330267   0.3072121   0.0000000), wk =   0.0266667
        k(   58) = (   0.1330267   0.3456136   0.0000000), wk =   0.0266667
        k(   59) = (   0.1330267   0.3840151   0.0000000), wk =   0.0266667
        k(   60) = (   0.1330267   0.4224166   0.0000000), wk =   0.0266667
        k(   61) = (   0.1330267   0.4608181   0.0000000), wk =   0.0266667
        k(   62) = (   0.1330267   0.4992196   0.0000000), wk =   0.0266667
        k(   63) = (   0.1330267   0.5376211   0.0000000), wk =   0.0266667
        k(   64) = (   0.1330267   0.5760226   0.0000000), wk =   0.0133333
        k(   65) = (   0.1662834   0.2880113   0.0000000), wk =   0.0133333
        k(   66) = (   0.1662834   0.3264128   0.0000000), wk =   0.0266667
        k(   67) = (   0.1662834   0.3648143   0.0000000), wk =   0.0266667
        k(   68) = (   0.1662834   0.4032158   0.0000000), wk =   0.0266667
        k(   69) = (   0.1662834   0.4416173   0.0000000), wk =   0.0266667
        k(   70) = (   0.1662834   0.4800188   0.0000000), wk =   0.0266667
        k(   71) = (   0.1662834   0.5184204   0.0000000), wk =   0.0266667
        k(   72) = (   0.1662834   0.5568219   0.0000000), wk =   0.0266667
        k(   73) = (   0.1995401   0.3456136   0.0000000), wk =   0.0133333
        k(   74) = (   0.1995401   0.3840151   0.0000000), wk =   0.0266667
        k(   75) = (   0.1995401   0.4224166   0.0000000), wk =   0.0266667
        k(   76) = (   0.1995401   0.4608181   0.0000000), wk =   0.0266667
        k(   77) = (   0.1995401   0.4992196   0.0000000), wk =   0.0266667
        k(   78) = (   0.1995401   0.5376211   0.0000000), wk =   0.0266667
        k(   79) = (   0.1995401   0.5760226   0.0000000), wk =   0.0133333
        k(   80) = (   0.2327968   0.4032158   0.0000000), wk =   0.0133333
        k(   81) = (   0.2327968   0.4416173   0.0000000), wk =   0.0266667
        k(   82) = (   0.2327968   0.4800188   0.0000000), wk =   0.0266667
        k(   83) = (   0.2327968   0.5184204   0.0000000), wk =   0.0266667
        k(   84) = (   0.2327968   0.5568219   0.0000000), wk =   0.0266667
        k(   85) = (   0.2660534   0.4608181   0.0000000), wk =   0.0133333
        k(   86) = (   0.2660534   0.4992196   0.0000000), wk =   0.0266667
        k(   87) = (   0.2660534   0.5376211   0.0000000), wk =   0.0266667
        k(   88) = (   0.2660534   0.5760226   0.0000000), wk =   0.0133333
        k(   89) = (   0.2993101   0.5184204   0.0000000), wk =   0.0133333
        k(   90) = (   0.2993101   0.5568219   0.0000000), wk =   0.0266667
        k(   91) = (   0.3325668   0.5760226   0.0000000), wk =   0.0044444

     Dense  grid:    95959 G-vectors     FFT dimensions: (  30,  30, 250)

     Smooth grid:    24345 G-vectors     FFT dimensions: (  24,  24, 160)

     Estimated max dynamical RAM per process >      39.24 MB

     Estimated total dynamical RAM >     156.97 MB

     Check: negative core charge=   -0.000002

     Initial potential from superposition of free atoms

     starting charge    7.99992, renormalised to    8.00000

     negative rho (up, down):  1.066E-04 0.000E+00
     Starting wfcs are    8 randomized atomic wfcs
     Checking if some PAW data can be deallocated... 

     total cpu time spent up to now is        2.0 secs

     Self-consistent Calculation

     iteration #  1     ecut=    40.00 Ry     beta= 0.30
     Davidson diagonalization with overlap
     ethr =  1.00E-02,  avg # of iterations =  5.1

     negative rho (up, down):  1.072E-04 0.000E+00

     total cpu time spent up to now is        6.4 secs

     total energy              =     -36.90805171 Ry
     Harris-Foulkes estimate   =     -36.97759971 Ry
     estimated scf accuracy    <       0.20181211 Ry

     iteration #  2     ecut=    40.00 Ry     beta= 0.30
     Davidson diagonalization with overlap
     ethr =  2.52E-03,  avg # of iterations =  1.5

     negative rho (up, down):  2.641E-04 0.000E+00

     total cpu time spent up to now is        9.2 secs

     total energy              =     -36.87509021 Ry
     Harris-Foulkes estimate   =     -36.91392783 Ry
     estimated scf accuracy    <       0.06705927 Ry

     iteration #  3     ecut=    40.00 Ry     beta= 0.30
     Davidson diagonalization with overlap
     ethr =  8.38E-04,  avg # of iterations =  6.2

     negative rho (up, down):  2.719E-04 0.000E+00

     total cpu time spent up to now is       13.9 secs

     total energy              =     -36.88656741 Ry
     Harris-Foulkes estimate   =     -36.88652719 Ry
     estimated scf accuracy    <       0.00137543 Ry

     iteration #  4     ecut=    40.00 Ry     beta= 0.30
     Davidson diagonalization with overlap
     c_bands:  1 eigenvalues not converged
     ethr =  1.72E-05,  avg # of iterations =  6.2

     negative rho (up, down):  2.213E-04 0.000E+00

     total cpu time spent up to now is       19.2 secs

     total energy              =     -36.88608498 Ry
     Harris-Foulkes estimate   =     -36.88731325 Ry
     estimated scf accuracy    <       0.00189111 Ry

     iteration #  5     ecut=    40.00 Ry     beta= 0.30
     Davidson diagonalization with overlap
     ethr =  1.72E-05,  avg # of iterations =  2.8

     negative rho (up, down):  1.786E-04 0.000E+00

     total cpu time spent up to now is       22.6 secs

     total energy              =     -36.88641853 Ry
     Harris-Foulkes estimate   =     -36.88641833 Ry
     estimated scf accuracy    <       0.00000172 Ry

     iteration #  6     ecut=    40.00 Ry     beta= 0.30
     Davidson diagonalization with overlap
     ethr =  2.15E-08,  avg # of iterations =  3.4

     negative rho (up, down):  1.550E-04 0.000E+00

     total cpu time spent up to now is       26.3 secs

     total energy              =     -36.88641950 Ry
     Harris-Foulkes estimate   =     -36.88641924 Ry
     estimated scf accuracy    <       0.00000028 Ry

     iteration #  7     ecut=    40.00 Ry     beta= 0.30
     Davidson diagonalization with overlap
     ethr =  3.48E-09,  avg # of iterations =  2.0

     negative rho (up, down):  1.416E-04 0.000E+00

     total cpu time spent up to now is       29.4 secs

     total energy              =     -36.88641954 Ry
     Harris-Foulkes estimate   =     -36.88641955 Ry
     estimated scf accuracy    <       0.00000003 Ry

     iteration #  8     ecut=    40.00 Ry     beta= 0.30
     Davidson diagonalization with overlap
     ethr =  4.04E-10,  avg # of iterations =  2.0

     negative rho (up, down):  1.342E-04 0.000E+00

     total cpu time spent up to now is       32.5 secs

     total energy              =     -36.88641955 Ry
     Harris-Foulkes estimate   =     -36.88641955 Ry
     estimated scf accuracy    <          2.7E-09 Ry

     iteration #  9     ecut=    40.00 Ry     beta= 0.30
     Davidson diagonalization with overlap
     ethr =  3.43E-11,  avg # of iterations =  2.0

     negative rho (up, down):  1.263E-04 0.000E+00

     total cpu time spent up to now is       35.3 secs

     End of self-consistent calculation

          k = 0.0000 0.0000 0.0000 (  3053 PWs)   bands (ev):

   -21.8805  -9.9731  -5.4007  -5.4007   0.8490   1.5154   1.6441   2.6545

          k = 0.0000 0.0384 0.0000 (  3063 PWs)   bands (ev):

   -21.8542  -9.9417  -5.5097  -5.4583   0.8847   1.5516   1.6806   2.6907

          k = 0.0000 0.0768 0.0000 (  3050 PWs)   bands (ev):

   -21.7755  -9.8475  -5.8251  -5.6230   0.9920   1.6604   1.7901   2.7991

          k = 0.0000 0.1152 0.0000 (  3052 PWs)   bands (ev):

   -21.6445  -9.6911  -6.3188  -5.8743   1.1708   1.8416   1.9726   2.9797

          k = 0.0000 0.1536 0.0000 (  3036 PWs)   bands (ev):

   -21.4613  -9.4729  -6.9530  -6.1863   1.4210   2.0952   2.2280   3.2325

          k = 0.0000 0.1920 0.0000 (  3046 PWs)   bands (ev):

   -21.2263  -9.1942  -7.6912  -6.5327   1.7427   2.4209   2.5564   3.5566

          k = 0.0000 0.2304 0.0000 (  3042 PWs)   bands (ev):

   -20.9401  -8.8563  -8.5003  -6.8912   2.1355   2.8180   2.9579   3.9515

          k = 0.0000 0.2688 0.0000 (  3048 PWs)   bands (ev):

   -20.6031  -9.3541  -8.4615  -7.2439   2.5993   3.2849   3.4321   4.4107

          k = 0.0000 0.3072 0.0000 (  3036 PWs)   bands (ev):

   -20.2162 -10.2315  -8.0129  -7.5771   3.1335   3.8039   3.9792   4.4404

          k = 0.0000 0.3456 0.0000 (  3026 PWs)   bands (ev):

   -19.7804 -11.1162  -7.8808  -7.5152   3.4782   3.7370   4.4742   4.5985

          k = 0.0000 0.3840 0.0000 (  3042 PWs)   bands (ev):

   -19.2971 -11.9955  -8.1479  -6.9758   2.5648   4.4065   5.1463   5.2738

          k = 0.0000 0.4224 0.0000 (  3034 PWs)   bands (ev):

   -18.7687 -12.8579  -8.3722  -6.4071   1.6640   5.0881   5.3337   5.8989

          k = 0.0000 0.4608 0.0000 (  3052 PWs)   bands (ev):

   -18.1992 -13.6930  -8.5506  -5.8317   0.8180   5.1527   5.9934   6.7224

          k = 0.0000 0.4992 0.0000 (  3052 PWs)   bands (ev):

   -17.5980 -14.4869  -8.6797  -5.2929   0.0799   5.0946   6.8637   7.6135

          k = 0.0000 0.5376 0.0000 (  3042 PWs)   bands (ev):

   -17.0002 -15.2015  -8.7578  -4.8752  -0.4596   5.0561   7.8024   8.5678

          k = 0.0000-0.5760 0.0000 (  3052 PWs)   bands (ev):

   -16.6391 -15.6017  -8.7841  -4.7097  -0.6663   5.0428   8.7329   8.8754

          k = 0.0333 0.0576 0.0000 (  3061 PWs)   bands (ev):

   -21.8017  -9.8789  -5.7178  -5.5734   0.9562   1.6242   1.7536   2.7629

          k = 0.0333 0.0960 0.0000 (  3055 PWs)   bands (ev):

   -21.6968  -9.7536  -6.1128  -5.7912   1.0993   1.7692   1.8996   2.9075

          k = 0.0333 0.1344 0.0000 (  3051 PWs)   bands (ev):

   -21.5397  -9.5662  -6.6657  -6.0844   1.3138   1.9866   2.1186   3.1241

          k = 0.0333 0.1728 0.0000 (  3047 PWs)   bands (ev):

   -21.3307  -9.3178  -7.3417  -6.4239   1.5998   2.2762   2.4105   3.4126

          k = 0.0333 0.2112 0.0000 (  3044 PWs)   bands (ev):

   -21.0701  -9.0094  -8.1069  -6.7849   1.9571   2.6377   2.7754   3.7724

          k = 0.0333 0.2496 0.0000 (  3038 PWs)   bands (ev):

   -20.7585  -8.9319  -8.6429  -7.1470   2.3855   3.0702   3.2133   4.2014

          k = 0.0333 0.2880 0.0000 (  3042 PWs)   bands (ev):

   -20.3965  -9.7927  -8.2210  -7.4950   2.8846   3.5691   3.7240   4.6513

          k = 0.0333 0.3264 0.0000 (  3040 PWs)   bands (ev):

   -19.9851 -10.6704  -7.8171  -7.7473   3.4538   3.8719   4.2293   4.3076

          k = 0.0333 0.3648 0.0000 (  3035 PWs)   bands (ev):

   -19.5256 -11.5498  -8.1049  -7.2278   3.0069   4.0915   4.8234   4.9622

          k = 0.0333 0.4032 0.0000 (  3030 PWs)   bands (ev):

   -19.0196 -12.4189  -8.3523  -6.6718   2.0975   4.7906   5.4424   5.5387

          k = 0.0333 0.4416 0.0000 (  3049 PWs)   bands (ev):

   -18.4702 -13.2670  -8.5549  -6.0961   1.2221   5.2877   5.6311   6.3268

          k = 0.0333 0.4800 0.0000 (  3052 PWs)   bands (ev):

   -17.8834 -14.0821  -8.7093  -5.5312   0.4241   5.2412   6.4455   7.1836

          k = 0.0333 0.5184 0.0000 (  3048 PWs)   bands (ev):

   -17.2760 -14.8437  -8.8134  -5.0383  -0.2282   5.1918   7.3510   8.1055

          k = 0.0333 0.5568 0.0000 (  3036 PWs)   bands (ev):

   -16.7342 -15.4633  -8.8657  -4.7287  -0.6186   5.1657   8.3174   9.0828

          k = 0.0665 0.1152 0.0000 (  3041 PWs)   bands (ev):

   -21.5659  -9.5974  -6.5498  -6.0679   1.2781   1.9504   2.0820   3.0880

          k = 0.0665 0.1536 0.0000 (  3047 PWs)   bands (ev):

   -21.3829  -9.3797  -7.1190  -6.4145   1.5284   2.2039   2.3375   3.3406

          k = 0.0665 0.1920 0.0000 (  3051 PWs)   bands (ev):

   -21.1482  -9.1015  -7.7984  -6.7933   1.8501   2.5295   2.6660   3.6648

          k = 0.0665 0.2304 0.0000 (  3047 PWs)   bands (ev):

   -20.8622  -8.7643  -8.5606  -7.1773   2.2431   2.9266   3.0674   4.0599

          k = 0.0665 0.2688 0.0000 (  3038 PWs)   bands (ev):

   -20.5256  -9.3788  -8.3703  -7.5488   2.7070   3.3937   3.5418   4.5188

          k = 0.0665 0.3072 0.0000 (  3032 PWs)   bands (ev):

   -20.1392 -10.2300  -7.9226  -7.8954   3.2413   3.9078   4.0890   4.3466

          k = 0.0665 0.3456 0.0000 (  3031 PWs)   bands (ev):

   -19.7040 -11.0956  -8.2085  -7.4257   3.4026   3.8454   4.5704   4.7089

          k = 0.0665 0.3840 0.0000 (  3038 PWs)   bands (ev):

   -19.2216 -11.9605  -8.4817  -6.8871   2.5036   4.5174   5.2472   5.3992

          k = 0.0665 0.4224 0.0000 (  3031 PWs)   bands (ev):

   -18.6942 -12.8123  -8.7104  -6.3187   1.6184   5.2460   5.7459   5.9990

          k = 0.0665 0.4608 0.0000 (  3045 PWs)   bands (ev):

   -18.1260 -13.6397  -8.8913  -5.7428   0.7844   5.6108   6.1071   6.8197

          k = 0.0665 0.4992 0.0000 (  3042 PWs)   bands (ev):

   -17.5265 -14.4276  -9.0219  -5.2021   0.0535   5.5612   6.9680   7.7056

          k = 0.0665 0.5376 0.0000 (  3043 PWs)   bands (ev):

   -16.9308 -15.1376  -9.1010  -4.7813  -0.4838   5.5233   7.9032   8.6486

          k = 0.0665 0.5760 0.0000 (  3038 PWs)   bands (ev):

   -16.5716 -15.5351  -9.1275  -4.6136  -0.6906   5.5103   8.8261   8.9747

          k = 0.0998 0.1728 0.0000 (  3063 PWs)   bands (ev):

   -21.1743  -9.1323  -7.6697  -6.8224   1.8145   2.4934   2.6295   3.6290

          k = 0.0998 0.2112 0.0000 (  3047 PWs)   bands (ev):

   -20.9142  -8.8251  -8.3145  -7.2556   2.1719   2.8548   2.9945   3.9888

          k = 0.0998 0.2496 0.0000 (  3033 PWs)   bands (ev):

   -20.6032  -9.0425  -8.4602  -7.6768   2.6004   3.2873   3.4325   4.4185

          k = 0.0998 0.2880 0.0000 (  3041 PWs)   bands (ev):

   -20.2422  -9.8314  -8.0673  -8.0400   3.0997   3.7866   3.9434   4.5982

          k = 0.0998 0.3264 0.0000 (  3030 PWs)   bands (ev):

   -19.8319 -10.6573  -8.4182  -7.5681   3.6692   3.7257   4.3867   4.5270

          k = 0.0998 0.3648 0.0000 (  3034 PWs)   bands (ev):

   -19.3738 -11.4998  -8.7254  -7.0503   2.8565   4.3080   5.0250   5.1834

          k = 0.0998 0.4032 0.0000 (  3042 PWs)   bands (ev):

   -18.8697 -12.3419  -8.9855  -6.4957   1.9822   5.0142   5.7402   5.9101

          k = 0.0998 0.4416 0.0000 (  3043 PWs)   bands (ev):

   -18.3226 -13.1703  -9.1962  -5.9199   1.1364   5.7761   6.2455   6.5237

          k = 0.0998 0.4800 0.0000 (  3037 PWs)   bands (ev):

   -17.7387 -13.9709  -9.3557  -5.3528   0.3585   6.1270   6.6631   7.3713

          k = 0.0998 0.5184 0.0000 (  3036 PWs)   bands (ev):

   -17.1351 -14.7216  -9.4627  -4.8544  -0.2844   6.0863   7.5562   8.2740

          k = 0.0998 0.5568 0.0000 (  3025 PWs)   bands (ev):

   -16.5979 -15.3332  -9.5164  -4.5381  -0.6739   6.0610   8.5138   9.1968

          k = 0.1330 0.2304 0.0000 (  3049 PWs)   bands (ev):

   -20.6291  -8.8981  -8.4902  -7.7537   2.5649   3.2518   3.3960   4.3841

          k = 0.1330 0.2688 0.0000 (  3043 PWs)   bands (ev):

   -20.2937  -9.5589  -8.2317  -8.0988   3.0288   3.7195   3.8705   4.7506

          k = 0.1330 0.3072 0.0000 (  3031 PWs)   bands (ev):

   -19.9088 -10.2910  -8.6580  -7.6539   3.5632   3.9470   4.2693   4.4178

          k = 0.1330 0.3456 0.0000 (  3036 PWs)   bands (ev):

   -19.4756 -11.0729  -9.0242  -7.1600   3.1237   4.1674   4.8733   5.0380

          k = 0.1330 0.3840 0.0000 (  3040 PWs)   bands (ev):

   -18.9956 -11.8798  -9.3313  -6.6239   2.2823   4.8405   5.5518   5.7308

          k = 0.1330 0.4224 0.0000 (  3040 PWs)   bands (ev):

   -18.4713 -12.6910  -9.5815  -6.0570   1.4494   5.5804   6.2972   6.4947

          k = 0.1330 0.4608 0.0000 (  3039 PWs)   bands (ev):

   -17.9071 -13.4895  -9.7756  -5.4797   0.6551   6.3780   6.9071   7.1045

          k = 0.1330 0.4992 0.0000 (  3037 PWs)   bands (ev):

   -17.3126 -14.2566  -9.9143  -4.9330  -0.0525   6.8062   7.2880   7.9625

          k = 0.1330 0.5376 0.0000 (  3024 PWs)   bands (ev):

   -16.7233 -14.9515  -9.9975  -4.5010  -0.5833   6.7782   8.2045   8.8344

          k = 0.1330 0.5760 0.0000 (  3014 PWs)   bands (ev):

   -16.3693 -15.3410 -10.0253  -4.3262  -0.7914   6.7657   9.1003   9.2696

          k = 0.1663 0.2880 0.0000 (  3031 PWs)   bands (ev):

   -19.9345 -10.1294  -8.7793  -7.6826   3.5278   4.0326   4.2226   4.3814

          k = 0.1663 0.3264 0.0000 (  3051 PWs)   bands (ev):

   -19.5266 -10.7728  -9.2659  -7.2151   3.2700   4.0969   4.7954   4.9652

          k = 0.1663 0.3648 0.0000 (  3047 PWs)   bands (ev):

   -19.0714 -11.4840  -9.6674  -6.7016   2.4833   4.7353   5.4365   5.6218

          k = 0.1663 0.4032 0.0000 (  3038 PWs)   bands (ev):

   -18.5710 -12.2383  -9.9864  -6.1502   1.6886   5.4417   6.1429   6.3510

          k = 0.1663 0.4416 0.0000 (  3032 PWs)   bands (ev):

   -18.0288 -13.0080 -10.2326  -5.5753   0.9076   6.2138   6.9083   7.1517

          k = 0.1663 0.4800 0.0000 (  3039 PWs)   bands (ev):

   -17.4510 -13.7688 -10.4132  -5.0037   0.1742   7.0442   7.6926   7.7174

          k = 0.1663 0.5184 0.0000 (  3024 PWs)   bands (ev):

   -16.8551 -14.4921 -10.5318  -4.4923  -0.4486   7.6048   7.9771   8.5229

          k = 0.1663 0.5568 0.0000 (  3012 PWs)   bands (ev):

   -16.3263 -15.0860 -10.5907  -4.1591  -0.8385   7.5930   8.9007   9.1433

          k = 0.1995 0.3456 0.0000 (  3047 PWs)   bands (ev):

   -19.0967 -11.3048  -9.8284  -6.7276   2.5546   4.7001   5.3975   5.5855

          k = 0.1995 0.3840 0.0000 (  3041 PWs)   bands (ev):

   -18.6210 -11.9116 -10.2940  -6.1974   1.8194   5.3717   6.0642   6.2784

          k = 0.1995 0.4224 0.0000 (  3039 PWs)   bands (ev):

   -18.1023 -12.5864 -10.6475  -5.6345   1.0792   6.1098   6.7870   7.0437

          k = 0.1995 0.4608 0.0000 (  3014 PWs)   bands (ev):

   -17.5451 -13.2978 -10.9020  -5.0562   0.3564   6.9113   7.5452   7.8808

          k = 0.1995 0.4992 0.0000 (  3018 PWs)   bands (ev):

   -16.9596 -14.0095 -11.0742  -4.4983  -0.3090   7.7680   8.2754   8.5561

          k = 0.1995 0.5376 0.0000 (  3012 PWs)   bands (ev):

   -16.3806 -14.6700 -11.1743  -4.0420  -0.8316   8.4694   8.7250   8.8048

          k = 0.1995 0.5760 0.0000 (  3012 PWs)   bands (ev):

   -16.0326 -15.0460 -11.2071  -3.8498  -1.0463   8.4809   8.9753   9.5339

          k = 0.2328 0.4032 0.0000 (  3037 PWs)   bands (ev):

   -18.1269 -12.3907 -10.8423  -5.6546   1.1404   6.0749   6.7458   7.0074

          k = 0.2328 0.4416 0.0000 (  3027 PWs)   bands (ev):

   -17.5927 -12.9495 -11.2627  -5.0841   0.4584   6.8422   7.4551   7.8087

          k = 0.2328 0.4800 0.0000 (  3009 PWs)   bands (ev):

   -17.0251 -13.5748 -11.5487  -4.5072  -0.2045   7.6681   8.1116   8.6813

          k = 0.2328 0.5184 0.0000 (  3011 PWs)   bands (ev):

   -16.4414 -14.2181 -11.7228  -3.9713  -0.7993   8.5362   8.5396   9.4360

          k = 0.2328 0.5568 0.0000 (  3009 PWs)   bands (ev):

   -15.9222 -14.7733 -11.8050  -3.5980  -1.2024   8.6803   9.3240   9.5140

          k = 0.2661 0.4608 0.0000 (  3011 PWs)   bands (ev):

   -17.0473 -13.3685 -11.7689  -4.5111  -0.1658   7.6337   8.0538   8.6454

          k = 0.2661 0.4992 0.0000 (  3009 PWs)   bands (ev):

   -16.4766 -13.8696 -12.1177  -3.9390  -0.7728   8.3883   8.4738   9.5522

          k = 0.2661 0.5376 0.0000 (  3001 PWs)   bands (ev):

   -15.9119 -14.4129 -12.3095  -3.4312  -1.3008   8.4607   9.3345  10.2197

          k = 0.2661 0.5760 0.0000 (  3000 PWs)   bands (ev):

   -15.5622 -14.7599 -12.3696  -3.1878  -1.5509   8.4616  10.0658  10.0799

          k = 0.2993 0.5184 0.0000 (  3001 PWs)   bands (ev):

   -15.9158 -14.2269 -12.5370  -3.3723  -1.3349   8.3816   9.3037  10.6676

          k = 0.2993 0.5568 0.0000 (  2996 PWs)   bands (ev):

   -15.4007 -14.6375 -12.7511  -2.8868  -1.8167   8.3257  10.0786  10.5776

          k = 0.3326 0.5760 0.0000 (  3009 PWs)   bands (ev):

   -14.9595 -14.9595 -12.9227  -2.3465  -2.3465   8.2701  10.5308  10.5308

     the Fermi energy is    -2.3464 ev

!    total energy              =     -36.88641956 Ry
     Harris-Foulkes estimate   =     -36.88641955 Ry
     estimated scf accuracy    <          5.9E-11 Ry

     total all-electron energy =      -152.414615 Ry

     The total energy is the sum of the following terms:

     one-electron contribution =    -223.81335880 Ry
     hartree contribution      =     113.34097414 Ry
     xc contribution           =      -9.27396918 Ry
     ewald contribution        =      95.19374234 Ry
     one-center paw contrib.   =     -12.33380791 Ry
     smearing contrib. (-TS)   =      -0.00000015 Ry

     convergence has been achieved in   9 iterations

     Writing output data file graphene.save/
 
     init_run     :      1.32s CPU      1.42s WALL (       1 calls)
     electrons    :     31.14s CPU     33.35s WALL (       1 calls)

     Called by init_run:
     wfcinit      :      0.86s CPU      0.92s WALL (       1 calls)
     potinit      :      0.20s CPU      0.23s WALL (       1 calls)
     hinit0       :      0.20s CPU      0.20s WALL (       1 calls)

     Called by electrons:
     c_bands      :     24.14s CPU     25.76s WALL (       9 calls)
     sum_band     :      5.59s CPU      6.06s WALL (       9 calls)
     v_of_rho     :      0.75s CPU      0.81s WALL (      10 calls)
     newd         :      0.28s CPU      0.31s WALL (      10 calls)
     PAW_pot      :      0.29s CPU      0.30s WALL (      10 calls)
     mix_rho      :      0.13s CPU      0.14s WALL (       9 calls)

     Called by c_bands:
     init_us_2    :      0.34s CPU      0.35s WALL (    1729 calls)
     cegterg      :     23.37s CPU     24.94s WALL (     819 calls)

     Called by sum_band:
     sum_band:bec :      0.01s CPU      0.01s WALL (     819 calls)
     addusdens    :      0.28s CPU      0.29s WALL (       9 calls)

     Called by *egterg:
     h_psi        :     21.59s CPU     23.05s WALL (    3745 calls)
     s_psi        :      0.17s CPU      0.18s WALL (    3745 calls)
     g_psi        :      0.04s CPU      0.04s WALL (    2835 calls)
     cdiaghg      :      0.64s CPU      0.68s WALL (    3654 calls)

     Called by h_psi:
     h_psi:pot    :     21.50s CPU     22.95s WALL (    3745 calls)
     h_psi:calbec :      0.90s CPU      0.97s WALL (    3745 calls)
     vloc_psi     :     20.22s CPU     21.58s WALL (    3745 calls)
     add_vuspsi   :      0.35s CPU      0.38s WALL (    3745 calls)

     General routines
     calbec       :      1.12s CPU      1.23s WALL (    4564 calls)
     fft          :      0.69s CPU      0.75s WALL (     128 calls)
     ffts         :      0.01s CPU      0.02s WALL (      19 calls)
     fftw         :     18.75s CPU     20.17s WALL (   45168 calls)
     interpolate  :      0.06s CPU      0.07s WALL (      10 calls)
 
     Parallel routines
     fft_scatt_xy :      3.30s CPU      3.52s WALL (   45315 calls)
     fft_scatt_yz :      5.87s CPU      6.48s WALL (   45315 calls)
 
     PWSCF        :     33.03s CPU     35.40s WALL

 
   This run was terminated on:  14:32:30  24Jul2019            

=------------------------------------------------------------------------------=
   JOB DONE.
=------------------------------------------------------------------------------=
