
     Program PWSCF v.6.4.1 starts on 24Jul2019 at 14:35:33 

     This program is part of the open-source Quantum ESPRESSO suite
     for quantum simulation of materials; please cite
         "P. Giannozzi et al., J. Phys.:Condens. Matter 21 395502 (2009);
         "P. Giannozzi et al., J. Phys.:Condens. Matter 29 465901 (2017);
          URL http://www.quantum-espresso.org", 
     in publications or presentations arising from this work. More details at
     http://www.quantum-espresso.org/quote

     Parallel version (MPI), running on     4 processors

     MPI processes distributed on     1 nodes
     R & G space division:  proc/nbgrp/npool/nimage =       4
     Reading input from graphene.4_bands.in

     Current dimensions of program PWSCF are:
     Max number of different atomic species (ntypx) = 10
     Max number of k-points (npk) =  40000
     Max angular momentum in pseudopotentials (lmaxx) =  3

     Atomic positions and unit cell read from directory:
     ./outdir/graphene.save/
 
               file C.pbe-n-kjpaw_psl.1.0.0.UPF: wavefunction(s)  2S 2P renormalized

     Subspace diagonalization in iterative solution of the eigenvalue problem:
     a serial algorithm will be used

     Message from routine setup:
     DEPRECATED: symmetry with ibrav=0, use correct ibrav instead
 
     Parallelization info
     --------------------
     sticks:   dense  smooth     PW     G-vecs:    dense   smooth      PW
     Min         148      60     21                23978     6080    1139
     Max         149      61     22                24003     6101    1152
     Sum         595     241     85                95959    24345    4587
 


     bravais-lattice index     =            0
     lattice parameter (alat)  =       4.6487  a.u.
     unit-cell volume          =     710.6031 (a.u.)^3
     number of atoms/cell      =            2
     number of atomic types    =            1
     number of electrons       =         8.00
     number of Kohn-Sham states=            8
     kinetic-energy cutoff     =      40.0000  Ry
     charge density cutoff     =     400.0000  Ry
     Exchange-correlation      = SLA PW PBX PBC ( 1  4  3  4 0 0)

     celldm(1)=   4.648726  celldm(2)=   0.000000  celldm(3)=   0.000000
     celldm(4)=   0.000000  celldm(5)=   0.000000  celldm(6)=   0.000000

     crystal axes: (cart. coord. in units of alat)
               a(1) = (   1.002305   0.000000   0.000000 )  
               a(2) = (  -0.501152   0.868021   0.000000 )  
               a(3) = (   0.000000   0.000000   8.130081 )  

     reciprocal axes: (cart. coord. in units 2 pi/alat)
               b(1) = (  0.997700  0.576023  0.000000 )  
               b(2) = (  0.000000  1.152045  0.000000 )  
               b(3) = (  0.000000  0.000000  0.123000 )  


     PseudoPot. # 1 for C  read from file:
     /home/bngjn/qe/SSSP_precision_pseudos/C.pbe-n-kjpaw_psl.1.0.0.UPF
     MD5 check sum: 5d2aebdfa2cae82b50a7e79e9516da0f
     Pseudo is Projector augmented-wave + core cor, Zval =  4.0
     Generated using "atomic" code by A. Dal Corso v.5.1
     Shape of augmentation charge: PSQ
     Using radial grid of 1073 points,  4 beta functions with: 
                l(1) =   0
                l(2) =   0
                l(3) =   1
                l(4) =   1
     Q(r) pseudized with 0 coefficients 


     atomic species   valence    mass     pseudopotential
        C              4.00    12.01070     C ( 1.00)

     24 Sym. Ops., with inversion, found (18 have fractional translation)



   Cartesian axes

     site n.     atom                  positions (alat units)
         1           C   tau(   1) = (   0.0000000   0.0000000   2.0325203  )
         2           C   tau(   2) = (  -0.0000000   0.5786810   2.0325203  )

     number of k points=    91  Marzari-Vanderbilt smearing, width (Ry)=  0.0001
                       cart. coord. in units 2pi/alat
        k(    1) = (   0.0000000   0.0000000   0.0000000), wk =   0.0219780
        k(    2) = (  -0.0110856   0.0192008   0.0000000), wk =   0.0219780
        k(    3) = (  -0.0221711   0.0384015   0.0000000), wk =   0.0219780
        k(    4) = (  -0.0332567   0.0576023   0.0000000), wk =   0.0219780
        k(    5) = (  -0.0443422   0.0768030   0.0000000), wk =   0.0219780
        k(    6) = (  -0.0554278   0.0960038   0.0000000), wk =   0.0219780
        k(    7) = (  -0.0665134   0.1152045   0.0000000), wk =   0.0219780
        k(    8) = (  -0.0775989   0.1344053   0.0000000), wk =   0.0219780
        k(    9) = (  -0.0886845   0.1536060   0.0000000), wk =   0.0219780
        k(   10) = (  -0.0997700   0.1728068   0.0000000), wk =   0.0219780
        k(   11) = (  -0.1108556   0.1920075   0.0000000), wk =   0.0219780
        k(   12) = (  -0.1219412   0.2112083   0.0000000), wk =   0.0219780
        k(   13) = (  -0.1330267   0.2304090   0.0000000), wk =   0.0219780
        k(   14) = (  -0.1441123   0.2496098   0.0000000), wk =   0.0219780
        k(   15) = (  -0.1551978   0.2688106   0.0000000), wk =   0.0219780
        k(   16) = (  -0.1662834   0.2880113   0.0000000), wk =   0.0219780
        k(   17) = (  -0.1773690   0.3072121   0.0000000), wk =   0.0219780
        k(   18) = (  -0.1884545   0.3264128   0.0000000), wk =   0.0219780
        k(   19) = (  -0.1995401   0.3456136   0.0000000), wk =   0.0219780
        k(   20) = (  -0.2106256   0.3648143   0.0000000), wk =   0.0219780
        k(   21) = (  -0.2217112   0.3840151   0.0000000), wk =   0.0219780
        k(   22) = (  -0.2327968   0.4032158   0.0000000), wk =   0.0219780
        k(   23) = (  -0.2438823   0.4224166   0.0000000), wk =   0.0219780
        k(   24) = (  -0.2549679   0.4416173   0.0000000), wk =   0.0219780
        k(   25) = (  -0.2660534   0.4608181   0.0000000), wk =   0.0219780
        k(   26) = (  -0.2771390   0.4800188   0.0000000), wk =   0.0219780
        k(   27) = (  -0.2882246   0.4992196   0.0000000), wk =   0.0219780
        k(   28) = (  -0.2993101   0.5184204   0.0000000), wk =   0.0219780
        k(   29) = (  -0.3103957   0.5376211   0.0000000), wk =   0.0219780
        k(   30) = (  -0.3214813   0.5568219   0.0000000), wk =   0.0219780
        k(   31) = (  -0.3325668   0.5760226   0.0000000), wk =   0.0219780
        k(   32) = (  -0.3214813   0.5760226   0.0000000), wk =   0.0219780
        k(   33) = (  -0.3103957   0.5760226   0.0000000), wk =   0.0219780
        k(   34) = (  -0.2993101   0.5760226   0.0000000), wk =   0.0219780
        k(   35) = (  -0.2882246   0.5760226   0.0000000), wk =   0.0219780
        k(   36) = (  -0.2771390   0.5760226   0.0000000), wk =   0.0219780
        k(   37) = (  -0.2660534   0.5760226   0.0000000), wk =   0.0219780
        k(   38) = (  -0.2549679   0.5760226   0.0000000), wk =   0.0219780
        k(   39) = (  -0.2438823   0.5760226   0.0000000), wk =   0.0219780
        k(   40) = (  -0.2327968   0.5760226   0.0000000), wk =   0.0219780
        k(   41) = (  -0.2217112   0.5760226   0.0000000), wk =   0.0219780
        k(   42) = (  -0.2106256   0.5760226   0.0000000), wk =   0.0219780
        k(   43) = (  -0.1995401   0.5760226   0.0000000), wk =   0.0219780
        k(   44) = (  -0.1884545   0.5760226   0.0000000), wk =   0.0219780
        k(   45) = (  -0.1773690   0.5760226   0.0000000), wk =   0.0219780
        k(   46) = (  -0.1662834   0.5760226   0.0000000), wk =   0.0219780
        k(   47) = (  -0.1551978   0.5760226   0.0000000), wk =   0.0219780
        k(   48) = (  -0.1441123   0.5760226   0.0000000), wk =   0.0219780
        k(   49) = (  -0.1330267   0.5760226   0.0000000), wk =   0.0219780
        k(   50) = (  -0.1219412   0.5760226   0.0000000), wk =   0.0219780
        k(   51) = (  -0.1108556   0.5760226   0.0000000), wk =   0.0219780
        k(   52) = (  -0.0997700   0.5760226   0.0000000), wk =   0.0219780
        k(   53) = (  -0.0886845   0.5760226   0.0000000), wk =   0.0219780
        k(   54) = (  -0.0775989   0.5760226   0.0000000), wk =   0.0219780
        k(   55) = (  -0.0665134   0.5760226   0.0000000), wk =   0.0219780
        k(   56) = (  -0.0554278   0.5760226   0.0000000), wk =   0.0219780
        k(   57) = (  -0.0443422   0.5760226   0.0000000), wk =   0.0219780
        k(   58) = (  -0.0332567   0.5760226   0.0000000), wk =   0.0219780
        k(   59) = (  -0.0221711   0.5760226   0.0000000), wk =   0.0219780
        k(   60) = (  -0.0110856   0.5760226   0.0000000), wk =   0.0219780
        k(   61) = (   0.0000000   0.5760226   0.0000000), wk =   0.0219780
        k(   62) = (   0.0000000   0.5568219   0.0000000), wk =   0.0219780
        k(   63) = (   0.0000000   0.5376211   0.0000000), wk =   0.0219780
        k(   64) = (   0.0000000   0.5184204   0.0000000), wk =   0.0219780
        k(   65) = (   0.0000000   0.4992196   0.0000000), wk =   0.0219780
        k(   66) = (   0.0000000   0.4800188   0.0000000), wk =   0.0219780
        k(   67) = (   0.0000000   0.4608181   0.0000000), wk =   0.0219780
        k(   68) = (   0.0000000   0.4416173   0.0000000), wk =   0.0219780
        k(   69) = (   0.0000000   0.4224166   0.0000000), wk =   0.0219780
        k(   70) = (   0.0000000   0.4032158   0.0000000), wk =   0.0219780
        k(   71) = (   0.0000000   0.3840151   0.0000000), wk =   0.0219780
        k(   72) = (   0.0000000   0.3648143   0.0000000), wk =   0.0219780
        k(   73) = (   0.0000000   0.3456136   0.0000000), wk =   0.0219780
        k(   74) = (   0.0000000   0.3264128   0.0000000), wk =   0.0219780
        k(   75) = (   0.0000000   0.3072121   0.0000000), wk =   0.0219780
        k(   76) = (   0.0000000   0.2880113   0.0000000), wk =   0.0219780
        k(   77) = (   0.0000000   0.2688106   0.0000000), wk =   0.0219780
        k(   78) = (   0.0000000   0.2496098   0.0000000), wk =   0.0219780
        k(   79) = (   0.0000000   0.2304090   0.0000000), wk =   0.0219780
        k(   80) = (   0.0000000   0.2112083   0.0000000), wk =   0.0219780
        k(   81) = (   0.0000000   0.1920075   0.0000000), wk =   0.0219780
        k(   82) = (   0.0000000   0.1728068   0.0000000), wk =   0.0219780
        k(   83) = (   0.0000000   0.1536060   0.0000000), wk =   0.0219780
        k(   84) = (   0.0000000   0.1344053   0.0000000), wk =   0.0219780
        k(   85) = (   0.0000000   0.1152045   0.0000000), wk =   0.0219780
        k(   86) = (   0.0000000   0.0960038   0.0000000), wk =   0.0219780
        k(   87) = (   0.0000000   0.0768030   0.0000000), wk =   0.0219780
        k(   88) = (   0.0000000   0.0576023   0.0000000), wk =   0.0219780
        k(   89) = (   0.0000000   0.0384015   0.0000000), wk =   0.0219780
        k(   90) = (   0.0000000   0.0192008   0.0000000), wk =   0.0219780
        k(   91) = (   0.0000000   0.0000000   0.0000000), wk =   0.0219780

     Dense  grid:    95959 G-vectors     FFT dimensions: (  30,  30, 250)

     Smooth grid:    24345 G-vectors     FFT dimensions: (  24,  24, 160)

     Estimated max dynamical RAM per process >      24.16 MB

     Estimated total dynamical RAM >      96.63 MB

     Check: negative core charge=   -0.000002

     The potential is recalculated from file :
     ./outdir/graphene.save/charge-density


     negative rho (up, down):  1.263E-04 0.000E+00
     Starting wfcs are    8 randomized atomic wfcs
     Checking if some PAW data can be deallocated... 

     Band Structure Calculation
     Davidson diagonalization with overlap

     ethr =  1.25E-12,  avg # of iterations = 36.6

     total cpu time spent up to now is       23.1 secs

     End of band structure calculation

          k = 0.0000 0.0000 0.0000 (  3053 PWs)   bands (ev):

   -21.8804  -9.9730  -5.4005  -5.4005   0.8496   1.5167   1.6458   2.6558

          k =-0.0111 0.0192 0.0000 (  3063 PWs)   bands (ev):

   -21.8716  -9.9625  -5.4371  -5.4199   0.8616   1.5288   1.6580   2.6679

          k =-0.0222 0.0384 0.0000 (  3067 PWs)   bands (ev):

   -21.8454  -9.9311  -5.5446  -5.4779   0.8973   1.5650   1.6945   2.7040

          k =-0.0333 0.0576 0.0000 (  3061 PWs)   bands (ev):

   -21.8016  -9.8788  -5.7176  -5.5732   0.9569   1.6255   1.7553   2.7643

          k =-0.0443 0.0768 0.0000 (  3055 PWs)   bands (ev):

   -21.7404  -9.8057  -5.9488  -5.7047   1.0403   1.7101   1.8404   2.8486

          k =-0.0554 0.0960 0.0000 (  3059 PWs)   bands (ev):

   -21.6618  -9.7118  -6.2294  -5.8705   1.1476   1.8188   1.9499   2.9569

          k =-0.0665 0.1152 0.0000 (  3041 PWs)   bands (ev):

   -21.5658  -9.5973  -6.5497  -6.0678   1.2787   1.9517   2.0837   3.0893

          k =-0.0776 0.1344 0.0000 (  3049 PWs)   bands (ev):

   -21.4524  -9.4624  -6.9015  -6.2944   1.4337   2.1086   2.2419   3.2457

          k =-0.0887 0.1536 0.0000 (  3057 PWs)   bands (ev):

   -21.3219  -9.3073  -7.2769  -6.5468   1.6125   2.2896   2.4244   3.4260

          k =-0.0998 0.1728 0.0000 (  3063 PWs)   bands (ev):

   -21.1741  -9.1322  -7.6695  -6.8222   1.8151   2.4947   2.6312   3.6302

          k =-0.1109 0.1920 0.0000 (  3051 PWs)   bands (ev):

   -21.0093  -8.9374  -8.0733  -7.1171   2.0416   2.7236   2.8624   3.8583

          k =-0.1219 0.2112 0.0000 (  3053 PWs)   bands (ev):

   -20.8276  -8.7232  -8.4841  -7.4286   2.2917   2.9765   3.1179   4.1100

          k =-0.1330 0.2304 0.0000 (  3049 PWs)   bands (ev):

   -20.6290  -8.8980  -8.4901  -7.7535   2.5656   3.2531   3.3977   4.3854

          k =-0.1441 0.2496 0.0000 (  3049 PWs)   bands (ev):

   -20.4138  -9.3117  -8.2386  -8.0888   2.8630   3.5533   3.7019   4.6842

          k =-0.1552 0.2688 0.0000 (  3043 PWs)   bands (ev):

   -20.1822  -9.7229  -8.4316  -7.9692   3.1840   3.8770   4.0304   4.5288

          k =-0.1663 0.2880 0.0000 (  3031 PWs)   bands (ev):

   -19.9344 -10.1292  -8.7792  -7.6825   3.5284   4.0327   4.2238   4.3831

          k =-0.1774 0.3072 0.0000 (  3039 PWs)   bands (ev):

   -19.6706 -10.5294  -9.1294  -7.3794   3.5365   3.8962   4.5935   4.7602

          k =-0.1885 0.3264 0.0000 (  3043 PWs)   bands (ev):

   -19.3912 -10.9216  -9.4799  -7.0607   3.0430   4.2870   4.9854   5.1616

          k =-0.1995 0.3456 0.0000 (  3047 PWs)   bands (ev):

   -19.0966 -11.3047  -9.8282  -6.7276   2.5547   4.7007   5.3987   5.5872

          k =-0.2106 0.3648 0.0000 (  3037 PWs)   bands (ev):

   -18.7872 -11.6777 -10.1727  -6.3810   2.0737   5.1370   5.8320   6.0370

          k =-0.2217 0.3840 0.0000 (  3037 PWs)   bands (ev):

   -18.4637 -12.0399 -10.5113  -6.0228   1.6018   5.5954   6.2829   6.5110

          k =-0.2328 0.4032 0.0000 (  3037 PWs)   bands (ev):

   -18.1268 -12.3906 -10.8422  -5.6545   1.1405   6.0754   6.7469   7.0092

          k =-0.2439 0.4224 0.0000 (  3031 PWs)   bands (ev):

   -17.7775 -12.7292 -11.1634  -5.2781   0.6914   6.5762   7.2148   7.5313

          k =-0.2550 0.4416 0.0000 (  3025 PWs)   bands (ev):

   -17.4170 -13.0552 -11.4731  -4.8960   0.2557   7.0964   7.6659   8.0774

          k =-0.2661 0.4608 0.0000 (  3011 PWs)   bands (ev):

   -17.0472 -13.3683 -11.7688  -4.5110  -0.1657   7.6342   8.0544   8.6471

          k =-0.2771 0.4800 0.0000 (  3007 PWs)   bands (ev):

   -16.6707 -13.6681 -12.0478  -4.1262  -0.5718   8.1862   8.3069   9.2401

          k =-0.2882 0.4992 0.0000 (  3007 PWs)   bands (ev):

   -16.2914 -13.9544 -12.3059  -3.7452  -0.9618   8.3959   8.7465   9.8554

          k =-0.2993 0.5184 0.0000 (  3001 PWs)   bands (ev):

   -15.9157 -14.2268 -12.5369  -3.3722  -1.3348   8.3817   9.3041  10.4895

          k =-0.3104 0.5376 0.0000 (  2997 PWs)   bands (ev):

   -15.5542 -14.4852 -12.7304  -3.0117  -1.6902   8.3323   9.8345  10.6681

          k =-0.3215 0.5568 0.0000 (  3009 PWs)   bands (ev):

   -15.2256 -14.7295 -12.8686  -2.6682  -2.0275   8.2879  10.2814  10.6224

          k =-0.3326 0.5760 0.0000 (  3009 PWs)   bands (ev):

   -14.9594 -14.9594 -12.9226  -2.3464  -2.3464   8.2702  10.5309  10.5309

          k =-0.3215 0.5760 0.0000 (  3011 PWs)   bands (ev):

   -15.0690 -14.8610 -12.9071  -2.4988  -2.1950   8.2752  10.4698  10.5545

          k =-0.3104 0.5760 0.0000 (  3003 PWs)   bands (ev):

   -15.1749 -14.7904 -12.8587  -2.6463  -2.0507   8.2906  10.4002  10.5240

          k =-0.2993 0.5760 0.0000 (  2998 PWs)   bands (ev):

   -15.2771 -14.7482 -12.7774  -2.7890  -1.9138   8.3169  10.3235  10.4562

          k =-0.2882 0.5760 0.0000 (  3002 PWs)   bands (ev):

   -15.3758 -14.7319 -12.6657  -2.9268  -1.7847   8.3543  10.2413  10.3604

          k =-0.2771 0.5760 0.0000 (  3000 PWs)   bands (ev):

   -15.4707 -14.7374 -12.5280  -3.0597  -1.6636   8.4027  10.1550  10.2375

          k =-0.2661 0.5760 0.0000 (  3000 PWs)   bands (ev):

   -15.5620 -14.7597 -12.3695  -3.1877  -1.5508   8.4617  10.0661  10.0800

          k =-0.2550 0.5760 0.0000 (  3008 PWs)   bands (ev):

   -15.6497 -14.7944 -12.1952  -3.3107  -1.4464   8.5306   9.8791   9.9757

          k =-0.2439 0.5760 0.0000 (  3008 PWs)   bands (ev):

   -15.7337 -14.8375 -12.0092  -3.4286  -1.3502   8.6084   9.6370   9.8850

          k =-0.2328 0.5760 0.0000 (  3004 PWs)   bands (ev):

   -15.8139 -14.8861 -11.8150  -3.5415  -1.2624   8.6936   9.3664   9.7947

          k =-0.2217 0.5760 0.0000 (  3004 PWs)   bands (ev):

   -15.8904 -14.9381 -11.6151  -3.6493  -1.1827   8.7846   9.0787   9.7058

          k =-0.2106 0.5760 0.0000 (  3016 PWs)   bands (ev):

   -15.9633 -14.9918 -11.4119  -3.7521  -1.1107   8.7816   8.8794   9.6188

          k =-0.1995 0.5760 0.0000 (  3012 PWs)   bands (ev):

   -16.0324 -15.0459 -11.2070  -3.8497  -1.0462   8.4810   8.9754   9.5343

          k =-0.1885 0.5760 0.0000 (  3004 PWs)   bands (ev):

   -16.0979 -15.0995 -11.0021  -3.9420  -0.9887   8.1804   9.0701   9.4528

          k =-0.1774 0.5760 0.0000 (  2998 PWs)   bands (ev):

   -16.1596 -15.1520 -10.7986  -4.0293  -0.9379   7.8826   9.1605   9.3746

          k =-0.1663 0.5760 0.0000 (  3000 PWs)   bands (ev):

   -16.2176 -15.2027 -10.5979  -4.1113  -0.8932   7.5903   9.2440   9.3000

          k =-0.1552 0.5760 0.0000 (  3014 PWs)   bands (ev):

   -16.2719 -15.2514 -10.4013  -4.1882  -0.8543   7.3054   9.2294   9.3179

          k =-0.1441 0.5760 0.0000 (  3014 PWs)   bands (ev):

   -16.3224 -15.2975 -10.2099  -4.2598  -0.8204   7.0301   9.1629   9.3371

          k =-0.1330 0.5760 0.0000 (  3014 PWs)   bands (ev):

   -16.3692 -15.3409 -10.0251  -4.3261  -0.7913   6.7658   9.1007   9.2696

          k =-0.1219 0.5760 0.0000 (  3014 PWs)   bands (ev):

   -16.4122 -15.3814  -9.8482  -4.3872  -0.7664   6.5147   9.0431   9.2073

          k =-0.1109 0.5760 0.0000 (  3012 PWs)   bands (ev):

   -16.4516 -15.4188  -9.6802  -4.4430  -0.7452   6.2782   8.9901   9.1502

          k =-0.0998 0.5760 0.0000 (  3020 PWs)   bands (ev):

   -16.4872 -15.4529  -9.5229  -4.4936  -0.7274   6.0579   8.9419   9.0984

          k =-0.0887 0.5760 0.0000 (  3038 PWs)   bands (ev):

   -16.5190 -15.4838  -9.3776  -4.5389  -0.7127   5.8554   8.8985   9.0519

          k =-0.0776 0.5760 0.0000 (  3034 PWs)   bands (ev):

   -16.5471 -15.5111  -9.2452  -4.5788  -0.7005   5.6725   8.8600   9.0108

          k =-0.0665 0.5760 0.0000 (  3038 PWs)   bands (ev):

   -16.5715 -15.5349  -9.1273  -4.6135  -0.6905   5.5104   8.8266   8.9751

          k =-0.0554 0.5760 0.0000 (  3034 PWs)   bands (ev):

   -16.5921 -15.5552  -9.0251  -4.6428  -0.6826   5.3706   8.7982   8.9448

          k =-0.0443 0.5760 0.0000 (  3038 PWs)   bands (ev):

   -16.6090 -15.5718  -8.9397  -4.6669  -0.6764   5.2542   8.7749   8.9200

          k =-0.0333 0.5760 0.0000 (  3040 PWs)   bands (ev):

   -16.6221 -15.5848  -8.8722  -4.6855  -0.6718   5.1625   8.7568   8.9007

          k =-0.0222 0.5760 0.0000 (  3044 PWs)   bands (ev):

   -16.6315 -15.5941  -8.8233  -4.6989  -0.6687   5.0963   8.7438   8.8869

          k =-0.0111 0.5760 0.0000 (  3044 PWs)   bands (ev):

   -16.6371 -15.5997  -8.7937  -4.7069  -0.6668   5.0563   8.7360   8.8786

          k = 0.0000 0.5760 0.0000 (  3052 PWs)   bands (ev):

   -16.6390 -15.6016  -8.7840  -4.7096  -0.6662   5.0429   8.7334   8.8758

          k = 0.0000 0.5568 0.0000 (  3046 PWs)   bands (ev):

   -16.7511 -15.4797  -8.7773  -4.7527  -0.6129   5.0463   8.2932   9.0653

          k = 0.0000 0.5376 0.0000 (  3042 PWs)   bands (ev):

   -17.0001 -15.2013  -8.7577  -4.8751  -0.4595   5.0562   7.8029   8.5688

          k = 0.0000 0.5184 0.0000 (  3048 PWs)   bands (ev):

   -17.2935 -14.8591  -8.7251  -5.0613  -0.2224   5.0724   7.3258   8.0844

          k = 0.0000 0.4992 0.0000 (  3052 PWs)   bands (ev):

   -17.5979 -14.4868  -8.6796  -5.2927   0.0800   5.0947   6.8642   7.6147

          k = 0.0000 0.4800 0.0000 (  3050 PWs)   bands (ev):

   -17.9013 -14.0962  -8.6213  -5.5536   0.4311   5.1222   6.4195   7.1609

          k = 0.0000 0.4608 0.0000 (  3052 PWs)   bands (ev):

   -18.1991 -13.6928  -8.5504  -5.8316   0.8182   5.1528   5.9939   6.7236

          k = 0.0000 0.4416 0.0000 (  3054 PWs)   bands (ev):

   -18.4886 -13.2794  -8.4673  -6.1182   1.2315   5.1767   5.5970   6.3032

          k = 0.0000 0.4224 0.0000 (  3034 PWs)   bands (ev):

   -18.7686 -12.8577  -8.3721  -6.4070   1.6641   5.0885   5.3340   5.9001

          k = 0.0000 0.4032 0.0000 (  3038 PWs)   bands (ev):

   -19.0383 -12.4292  -8.2655  -6.6940   2.1102   4.7608   5.3294   5.5147

          k = 0.0000 0.3840 0.0000 (  3042 PWs)   bands (ev):

   -19.2970 -11.9953  -8.1477  -6.9757   2.5649   4.4071   5.1476   5.2751

          k = 0.0000 0.3648 0.0000 (  3036 PWs)   bands (ev):

   -19.5444 -11.5571  -8.0193  -7.2500   3.0236   4.0646   4.7997   4.9358

          k = 0.0000 0.3456 0.0000 (  3026 PWs)   bands (ev):

   -19.7803 -11.1161  -7.8807  -7.5151   3.4783   3.7376   4.4755   4.6002

          k = 0.0000 0.3264 0.0000 (  3038 PWs)   bands (ev):

   -20.0042 -10.6738  -7.7697  -7.7331   3.4273   3.8798   4.2190   4.2816

          k = 0.0000 0.3072 0.0000 (  3036 PWs)   bands (ev):

   -20.2161 -10.2314  -8.0128  -7.5770   3.1341   3.8051   3.9809   4.4407

          k = 0.0000 0.2880 0.0000 (  3046 PWs)   bands (ev):

   -20.4157  -9.7909  -8.2436  -7.4136   2.8583   3.5432   3.6983   4.6322

          k = 0.0000 0.2688 0.0000 (  3048 PWs)   bands (ev):

   -20.6030  -9.3540  -8.4614  -7.2437   2.6000   3.2862   3.4338   4.4119

          k = 0.0000 0.2496 0.0000 (  3046 PWs)   bands (ev):

   -20.7778  -8.9229  -8.6658  -7.0691   2.3592   3.0443   3.1876   4.1756

          k = 0.0000 0.2304 0.0000 (  3042 PWs)   bands (ev):

   -20.9399  -8.8562  -8.5002  -6.8911   2.1362   2.8193   2.9595   3.9528

          k = 0.0000 0.2112 0.0000 (  3050 PWs)   bands (ev):

   -21.0895  -9.0325  -8.0886  -6.7116   1.9309   2.6119   2.7497   3.7467

          k = 0.0000 0.1920 0.0000 (  3046 PWs)   bands (ev):

   -21.2262  -9.1941  -7.6911  -6.5325   1.7433   2.4222   2.5581   3.5579

          k = 0.0000 0.1728 0.0000 (  3036 PWs)   bands (ev):

   -21.3501  -9.3409  -7.3112  -6.3565   1.5736   2.2504   2.3848   3.3868

          k = 0.0000 0.1536 0.0000 (  3036 PWs)   bands (ev):

   -21.4611  -9.4728  -6.9529  -6.1862   1.4217   2.0965   2.2297   3.2336

          k = 0.0000 0.1344 0.0000 (  3046 PWs)   bands (ev):

   -21.5592  -9.5895  -6.6206  -6.0244   1.2876   1.9607   2.0928   3.0983

          k = 0.0000 0.1152 0.0000 (  3052 PWs)   bands (ev):

   -21.6443  -9.6910  -6.3186  -5.8742   1.1714   1.8430   1.9742   2.9810

          k = 0.0000 0.0960 0.0000 (  3048 PWs)   bands (ev):

   -21.7164  -9.7770  -6.0518  -5.7393   1.0731   1.7433   1.8739   2.8817

          k = 0.0000 0.0768 0.0000 (  3050 PWs)   bands (ev):

   -21.7754  -9.8474  -5.8250  -5.6229   0.9926   1.6617   1.7918   2.8004

          k = 0.0000 0.0576 0.0000 (  3057 PWs)   bands (ev):

   -21.8213  -9.9023  -5.6428  -5.5281   0.9301   1.5983   1.7279   2.7372

          k = 0.0000 0.0384 0.0000 (  3063 PWs)   bands (ev):

   -21.8541  -9.9416  -5.5095  -5.4581   0.8854   1.5530   1.6823   2.6920

          k = 0.0000 0.0192 0.0000 (  3061 PWs)   bands (ev):

   -21.8738  -9.9651  -5.4280  -5.4152   0.8586   1.5258   1.6550   2.6649

          k = 0.0000 0.0000 0.0000 (  3053 PWs)   bands (ev):

   -21.8804  -9.9730  -5.4005  -5.4005   0.8496   1.5167   1.6458   2.6558

     Writing output data file graphene.save/
 
     init_run     :      0.42s CPU      0.54s WALL (       1 calls)
     electrons    :     21.53s CPU     21.84s WALL (       1 calls)

     Called by init_run:
     wfcinit      :      0.00s CPU      0.00s WALL (       1 calls)
     potinit      :      0.12s CPU      0.13s WALL (       1 calls)
     hinit0       :      0.21s CPU      0.28s WALL (       1 calls)

     Called by electrons:
     c_bands      :     21.53s CPU     21.82s WALL (       1 calls)
     v_of_rho     :      0.07s CPU      0.08s WALL (       1 calls)
     newd         :      0.04s CPU      0.07s WALL (       1 calls)
     PAW_pot      :      0.03s CPU      0.03s WALL (       1 calls)

     Called by c_bands:
     init_us_2    :      0.02s CPU      0.02s WALL (      91 calls)
     cegterg      :     20.56s CPU     20.81s WALL (     206 calls)

     Called by sum_band:

     Called by *egterg:
     h_psi        :     18.38s CPU     18.62s WALL (    3628 calls)
     s_psi        :      0.15s CPU      0.16s WALL (    3628 calls)
     g_psi        :      0.05s CPU      0.05s WALL (    3331 calls)
     cdiaghg      :      0.70s CPU      0.71s WALL (    3422 calls)

     Called by h_psi:
     h_psi:pot    :     18.31s CPU     18.55s WALL (    3628 calls)
     h_psi:calbec :      0.79s CPU      0.80s WALL (    3628 calls)
     vloc_psi     :     17.20s CPU     17.43s WALL (    3628 calls)
     add_vuspsi   :      0.29s CPU      0.29s WALL (    3628 calls)

     General routines
     calbec       :      0.77s CPU      0.79s WALL (    3628 calls)
     fft          :      0.09s CPU      0.12s WALL (      13 calls)
     ffts         :      0.01s CPU      0.01s WALL (       1 calls)
     fftw         :     13.19s CPU     13.37s WALL (   30634 calls)
     interpolate  :      0.01s CPU      0.02s WALL (       1 calls)
     davcio       :      0.01s CPU      0.02s WALL (     182 calls)
 
     Parallel routines
     fft_scatt_xy :      2.45s CPU      2.48s WALL (   30648 calls)
     fft_scatt_yz :      3.80s CPU      3.86s WALL (   30648 calls)
 
     PWSCF        :     22.72s CPU     23.24s WALL

 
   This run was terminated on:  14:35:56  24Jul2019            

=------------------------------------------------------------------------------=
   JOB DONE.
=------------------------------------------------------------------------------=
