
     Program PWSCF v.6.4.1 starts on 22Jul2019 at  7:11:50 

     This program is part of the open-source Quantum ESPRESSO suite
     for quantum simulation of materials; please cite
         "P. Giannozzi et al., J. Phys.:Condens. Matter 21 395502 (2009);
         "P. Giannozzi et al., J. Phys.:Condens. Matter 29 465901 (2017);
          URL http://www.quantum-espresso.org", 
     in publications or presentations arising from this work. More details at
     http://www.quantum-espresso.org/quote

     Parallel version (MPI), running on     4 processors

     MPI processes distributed on     1 nodes
     R & G space division:  proc/nbgrp/npool/nimage =       4
     Reading input from si.2_nscf.in

     Current dimensions of program PWSCF are:
     Max number of different atomic species (ntypx) = 10
     Max number of k-points (npk) =  40000
     Max angular momentum in pseudopotentials (lmaxx) =  3

     Atomic positions and unit cell read from directory:
     ./outdir/si.save/
 

     Subspace diagonalization in iterative solution of the eigenvalue problem:
     a serial algorithm will be used

 
     Parallelization info
     --------------------
     sticks:   dense  smooth     PW     G-vecs:    dense   smooth      PW
     Min         186     186     58                 3383     3383     569
     Max         187     187     59                 3388     3388     570
     Sum         745     745    235                13539    13539    2277
 


     bravais-lattice index     =            2
     lattice parameter (alat)  =      10.4109  a.u.
     unit-cell volume          =     282.1019 (a.u.)^3
     number of atoms/cell      =            2
     number of atomic types    =            1
     number of electrons       =         8.00
     number of Kohn-Sham states=            8
     kinetic-energy cutoff     =      50.0000  Ry
     charge density cutoff     =     200.0000  Ry
     Exchange-correlation      = PBE ( 1  4  3  4 0 0)

     celldm(1)=  10.410909  celldm(2)=   0.000000  celldm(3)=   0.000000
     celldm(4)=   0.000000  celldm(5)=   0.000000  celldm(6)=   0.000000

     crystal axes: (cart. coord. in units of alat)
               a(1) = (  -0.500000   0.000000   0.500000 )  
               a(2) = (   0.000000   0.500000   0.500000 )  
               a(3) = (  -0.500000   0.500000   0.000000 )  

     reciprocal axes: (cart. coord. in units 2 pi/alat)
               b(1) = ( -1.000000 -1.000000  1.000000 )  
               b(2) = (  1.000000  1.000000  1.000000 )  
               b(3) = ( -1.000000  1.000000 -1.000000 )  


     PseudoPot. # 1 for Si read from file:
     /home/bngjn/qe/SSSP_precision_pseudos/Si.pbe-n-rrkjus_psl.1.0.0.UPF
     MD5 check sum: 0b0bb1205258b0d07b9f9672cf965d36
     Pseudo is Ultrasoft + core correction, Zval =  4.0
     Generated using "atomic" code by A. Dal Corso v.5.1
     Using radial grid of 1141 points,  6 beta functions with: 
                l(1) =   0
                l(2) =   0
                l(3) =   1
                l(4) =   1
                l(5) =   2
                l(6) =   2
     Q(r) pseudized with 0 coefficients 


     atomic species   valence    mass     pseudopotential
        Si             4.00    28.08550     Si( 1.00)

     48 Sym. Ops., with inversion, found (24 have fractional translation)



   Cartesian axes

     site n.     atom                  positions (alat units)
         1           Si  tau(   1) = (   0.0000000   0.0000000   0.0000000  )
         2           Si  tau(   2) = (   0.2500000   0.2500000   0.2500000  )

     number of k points=    72 (tetrahedron method)
                       cart. coord. in units 2pi/alat
        k(    1) = (   0.0000000   0.0000000   0.0000000), wk =   0.0011574
        k(    2) = (  -0.0833333   0.0833333  -0.0833333), wk =   0.0092593
        k(    3) = (  -0.1666667   0.1666667  -0.1666667), wk =   0.0092593
        k(    4) = (  -0.2500000   0.2500000  -0.2500000), wk =   0.0092593
        k(    5) = (  -0.3333333   0.3333333  -0.3333333), wk =   0.0092593
        k(    6) = (  -0.4166667   0.4166667  -0.4166667), wk =   0.0092593
        k(    7) = (   0.5000000  -0.5000000   0.5000000), wk =   0.0046296
        k(    8) = (   0.0000000   0.1666667   0.0000000), wk =   0.0069444
        k(    9) = (  -0.0833333   0.2500000  -0.0833333), wk =   0.0277778
        k(   10) = (  -0.1666667   0.3333333  -0.1666667), wk =   0.0277778
        k(   11) = (  -0.2500000   0.4166667  -0.2500000), wk =   0.0277778
        k(   12) = (  -0.3333333   0.5000000  -0.3333333), wk =   0.0277778
        k(   13) = (   0.5833333  -0.4166667   0.5833333), wk =   0.0277778
        k(   14) = (   0.5000000  -0.3333333   0.5000000), wk =   0.0277778
        k(   15) = (   0.4166667  -0.2500000   0.4166667), wk =   0.0277778
        k(   16) = (   0.3333333  -0.1666667   0.3333333), wk =   0.0277778
        k(   17) = (   0.2500000  -0.0833333   0.2500000), wk =   0.0277778
        k(   18) = (   0.1666667  -0.0000000   0.1666667), wk =   0.0138889
        k(   19) = (   0.0000000   0.3333333   0.0000000), wk =   0.0069444
        k(   20) = (  -0.0833333   0.4166667  -0.0833333), wk =   0.0277778
        k(   21) = (  -0.1666667   0.5000000  -0.1666667), wk =   0.0277778
        k(   22) = (  -0.2500000   0.5833333  -0.2500000), wk =   0.0277778
        k(   23) = (   0.6666667  -0.3333333   0.6666667), wk =   0.0277778
        k(   24) = (   0.5833333  -0.2500000   0.5833333), wk =   0.0277778
        k(   25) = (   0.5000000  -0.1666667   0.5000000), wk =   0.0277778
        k(   26) = (   0.4166667  -0.0833333   0.4166667), wk =   0.0277778
        k(   27) = (   0.3333333   0.0000000   0.3333333), wk =   0.0138889
        k(   28) = (   0.0000000   0.5000000   0.0000000), wk =   0.0069444
        k(   29) = (  -0.0833333   0.5833333  -0.0833333), wk =   0.0277778
        k(   30) = (  -0.1666667   0.6666667  -0.1666667), wk =   0.0277778
        k(   31) = (   0.7500000  -0.2500000   0.7500000), wk =   0.0277778
        k(   32) = (   0.6666667  -0.1666667   0.6666667), wk =   0.0277778
        k(   33) = (   0.5833333  -0.0833333   0.5833333), wk =   0.0277778
        k(   34) = (   0.5000000   0.0000000   0.5000000), wk =   0.0138889
        k(   35) = (   0.0000000   0.6666667   0.0000000), wk =   0.0069444
        k(   36) = (  -0.0833333   0.7500000  -0.0833333), wk =   0.0277778
        k(   37) = (   0.8333333  -0.1666667   0.8333333), wk =   0.0277778
        k(   38) = (   0.7500000  -0.0833333   0.7500000), wk =   0.0277778
        k(   39) = (   0.6666667   0.0000000   0.6666667), wk =   0.0138889
        k(   40) = (   0.0000000   0.8333333   0.0000000), wk =   0.0069444
        k(   41) = (   0.9166667  -0.0833333   0.9166667), wk =   0.0277778
        k(   42) = (   0.8333333   0.0000000   0.8333333), wk =   0.0138889
        k(   43) = (   0.0000000  -1.0000000   0.0000000), wk =   0.0034722
        k(   44) = (  -0.1666667   0.3333333   0.0000000), wk =   0.0277778
        k(   45) = (  -0.2500000   0.4166667  -0.0833333), wk =   0.0555556
        k(   46) = (  -0.3333333   0.5000000  -0.1666667), wk =   0.0555556
        k(   47) = (   0.5833333  -0.4166667   0.7500000), wk =   0.0555556
        k(   48) = (   0.5000000  -0.3333333   0.6666667), wk =   0.0277778
        k(   49) = (  -0.1666667   0.5000000   0.0000000), wk =   0.0277778
        k(   50) = (  -0.2500000   0.5833333  -0.0833333), wk =   0.0555556
        k(   51) = (   0.6666667  -0.3333333   0.8333333), wk =   0.0555556
        k(   52) = (   0.5833333  -0.2500000   0.7500000), wk =   0.0555556
        k(   53) = (   0.5000000  -0.1666667   0.6666667), wk =   0.0555556
        k(   54) = (   0.4166667  -0.0833333   0.5833333), wk =   0.0555556
        k(   55) = (   0.3333333   0.0000000   0.5000000), wk =   0.0277778
        k(   56) = (  -0.1666667   0.6666667  -0.0000000), wk =   0.0277778
        k(   57) = (   0.7500000  -0.2500000   0.9166667), wk =   0.0555556
        k(   58) = (   0.6666667  -0.1666667   0.8333333), wk =   0.0555556
        k(   59) = (   0.5833333  -0.0833333   0.7500000), wk =   0.0555556
        k(   60) = (   0.5000000   0.0000000   0.6666667), wk =   0.0277778
        k(   61) = (   0.8333333  -0.1666667   1.0000000), wk =   0.0277778
        k(   62) = (   0.7500000  -0.0833333   0.9166667), wk =   0.0555556
        k(   63) = (   0.6666667   0.0000000   0.8333333), wk =   0.0277778
        k(   64) = (  -0.1666667  -1.0000000   0.0000000), wk =   0.0138889
        k(   65) = (   0.6666667  -0.3333333   1.0000000), wk =   0.0277778
        k(   66) = (   0.5833333  -0.2500000   0.9166667), wk =   0.0555556
        k(   67) = (   0.5000000  -0.1666667   0.8333333), wk =   0.0277778
        k(   68) = (   0.6666667  -0.1666667   1.0000000), wk =   0.0277778
        k(   69) = (   0.5833333  -0.0833333   0.9166667), wk =   0.0555556
        k(   70) = (   0.5000000   0.0000000   0.8333333), wk =   0.0277778
        k(   71) = (  -0.3333333  -1.0000000   0.0000000), wk =   0.0138889
        k(   72) = (  -0.5000000  -1.0000000   0.0000000), wk =   0.0069444

     Dense  grid:    13539 G-vectors     FFT dimensions: (  36,  36,  36)

     Estimated max dynamical RAM per process >      13.11 MB

     Estimated total dynamical RAM >      52.45 MB

     Check: negative core charge=   -0.000001

     The potential is recalculated from file :
     ./outdir/si.save/charge-density

     Starting wfcs are    8 randomized atomic wfcs

     Band Structure Calculation
     Davidson diagonalization with overlap

     ethr =  1.25E-10,  avg # of iterations = 18.7

     total cpu time spent up to now is        5.8 secs

     End of band structure calculation

          k = 0.0000 0.0000 0.0000 (  1687 PWs)   bands (ev):

    -5.9089   5.7619   5.7619   5.7619   8.3057   8.3057   8.3057   8.6349

          k =-0.0833 0.0833-0.0833 (  1699 PWs)   bands (ev):

    -5.8212   4.9005   5.6246   5.6246   8.2634   8.5079   8.5079   9.3952

          k =-0.1667 0.1667-0.1667 (  1687 PWs)   bands (ev):

    -5.5611   3.4097   5.3293   5.3293   7.9677   8.9300   8.9300  10.8517

          k =-0.2500 0.2500-0.2500 (  1679 PWs)   bands (ev):

    -5.1397   1.9093   5.0292   5.0292   7.6397   9.2315   9.2315  12.3281

          k =-0.3333 0.3333-0.3333 (  1670 PWs)   bands (ev):

    -4.5870   0.5503   4.7945   4.7945   7.3731   9.2585   9.2585  13.4411

          k =-0.4167 0.4167-0.4167 (  1679 PWs)   bands (ev):

    -3.9976  -0.5333   4.6492   4.6492   7.2047   9.1667   9.1667  13.5063

          k = 0.5000-0.5000 0.5000 (  1694 PWs)   bands (ev):

    -3.6850  -1.0122   4.6004   4.6004   7.1475   9.1193   9.1193  13.4380

          k = 0.0000 0.1667 0.0000 (  1695 PWs)   bands (ev):

    -5.7918   5.0317   5.3539   5.3539   8.0427   8.8579   8.8579   9.3186

          k =-0.0833 0.2500-0.0833 (  1704 PWs)   bands (ev):

    -5.5887   3.8361   5.0046   5.1703   8.0573   8.8420   9.3770  10.3738

          k =-0.1667 0.3333-0.1667 (  1690 PWs)   bands (ev):

    -5.2195   2.3819   4.7013   4.8544   8.1224   8.8735   9.7615  11.0692

          k =-0.2500 0.4167-0.2500 (  1677 PWs)   bands (ev):

    -4.7053   0.9953   4.4961   4.5113   7.9385   9.0190   9.8096  11.6611

          k =-0.3333 0.5000-0.3333 (  1683 PWs)   bands (ev):

    -4.1088  -0.1868   4.2247   4.4063   7.7616   9.0220   9.6411  12.6720

          k = 0.5833-0.4167 0.5833 (  1690 PWs)   bands (ev):

    -3.6472  -0.9187   4.0282   4.4332   7.6746   9.0380   9.4573  13.5724

          k = 0.5000-0.3333 0.5000 (  1682 PWs)   bands (ev):

    -3.7600  -0.7507   3.9395   4.5692   7.6954   9.1535   9.3494  13.6792

          k = 0.4167-0.2500 0.4167 (  1679 PWs)   bands (ev):

    -4.3103   0.1777   3.9707   4.7992   7.8233   9.3061   9.3473  13.0733

          k = 0.3333-0.1667 0.3333 (  1682 PWs)   bands (ev):

    -4.8915   1.4429   4.1310   5.0982   8.0462   9.2037   9.4697  12.0845

          k = 0.2500-0.0833 0.2500 (  1684 PWs)   bands (ev):

    -5.3609   2.8514   4.4322   5.4162   8.3303   8.8962   9.2284  11.2375

          k = 0.1667-0.0000 0.1667 (  1701 PWs)   bands (ev):

    -5.6759   4.1664   4.9416   5.6446   8.5387   8.5478   8.6864  10.2456

          k = 0.0000 0.3333 0.0000 (  1700 PWs)   bands (ev):

    -5.4426   3.6838   4.6225   4.6225   7.4822   9.8575  10.0150  10.0150

          k =-0.0833 0.4167-0.0833 (  1683 PWs)   bands (ev):

    -5.1277   2.6403   4.2746   4.2997   7.5002   9.5379  10.3792  10.5646

          k =-0.1667 0.5000-0.1667 (  1680 PWs)   bands (ev):

    -4.6589   1.3844   3.8305   4.0870   7.7310   9.6883  10.2526  10.7496

          k =-0.2500 0.5833-0.2500 (  1681 PWs)   bands (ev):

    -4.0776   0.2017   3.4038   4.0037   7.7721   9.8766  10.5989  10.7618

          k = 0.6667-0.3333 0.6667 (  1689 PWs)   bands (ev):

    -3.5254  -0.6873   3.0720   4.0530   7.7937   9.7649  10.3471  12.0682

          k = 0.5833-0.2500 0.5833 (  1694 PWs)   bands (ev):

    -3.4188  -0.8374   2.8694   4.2279   7.9182   9.7342  10.1290  13.5711

          k = 0.5000-0.1667 0.5000 (  1690 PWs)   bands (ev):

    -3.8895  -0.1175   2.8222   4.5099   8.1527   9.8040   9.9565  12.8488

          k = 0.4167-0.0833 0.4167 (  1680 PWs)   bands (ev):

    -4.4852   0.9781   2.9737   4.8624   8.4477   9.7112   9.8676  11.7092

          k = 0.3333 0.0000 0.3333 (  1684 PWs)   bands (ev):

    -4.9955   2.0773   3.4567   5.2115   8.6641   9.2708   9.5364  11.2520

          k = 0.0000 0.5000 0.0000 (  1700 PWs)   bands (ev):

    -4.8670   2.2340   3.9508   3.9508   6.9325   8.8950  11.3791  11.3791

          k =-0.0833 0.5833-0.0833 (  1687 PWs)   bands (ev):

    -4.4471   1.3564   3.5027   3.7123   7.0149   8.5632  11.6350  11.8592

          k =-0.1667 0.6667-0.1667 (  1678 PWs)   bands (ev):

    -3.8955   0.3712   2.8943   3.6075   7.2355   9.0103  11.4832  11.8464

          k = 0.7500-0.2500 0.7500 (  1689 PWs)   bands (ev):

    -3.3016  -0.5099   2.3673   3.6431   7.3237  10.1761  11.3027  11.5937

          k = 0.6667-0.1667 0.6667 (  1692 PWs)   bands (ev):

    -2.9988  -0.8987   2.0200   3.8148   7.4914  11.1136  11.3066  11.7590

          k = 0.5833-0.0833 0.5833 (  1686 PWs)   bands (ev):

    -3.3539  -0.4322   1.9126   4.1065   7.7928  10.9978  11.0726  12.7316

          k = 0.5000 0.0000 0.5000 (  1682 PWs)   bands (ev):

    -3.9466   0.3558   2.1724   4.4817   8.1811  10.4625  10.7968  11.6861

          k = 0.0000 0.6667 0.0000 (  1680 PWs)   bands (ev):

    -4.0755   0.7845   3.4411   3.4411   6.5505   7.8123  12.8369  12.8369

          k =-0.0833 0.7500-0.0833 (  1685 PWs)   bands (ev):

    -3.5616   0.0254   2.9807   3.3029   6.7118   7.6780  13.1270  13.2157

          k = 0.8333-0.1667 0.8333 (  1683 PWs)   bands (ev):

    -2.9602  -0.7146   2.2911   3.3078   6.8904   8.4888  13.0045  13.0616

          k = 0.7500-0.0833 0.7500 (  1681 PWs)   bands (ev):

    -2.5193  -1.1803   1.7421   3.4549   7.0598   9.8921  12.7162  12.8396

          k = 0.6667 0.0000 0.6667 (  1700 PWs)   bands (ev):

    -2.7827  -0.9015   1.5497   3.7316   7.3684  11.5184  12.0910  12.6198

          k = 0.0000 0.8333 0.0000 (  1684 PWs)   bands (ev):

    -3.0849  -0.6159   3.1268   3.1268   6.4102   7.0178  14.3415  14.3415

          k = 0.9167-0.0833 0.9167 (  1689 PWs)   bands (ev):

    -2.4958  -1.2796   2.7212   3.0939   6.6124   7.1630  14.5897  14.6482

          k = 0.8333 0.0000 0.8333 (  1684 PWs)   bands (ev):

    -2.0672  -1.6645   2.0902   3.2063   6.7680   8.3166  14.0484  14.4706

          k = 0.0000-1.0000 0.0000 (  1692 PWs)   bands (ev):

    -1.9202  -1.9202   3.0209   3.0209   6.5555   6.5555  15.4989  15.4989

          k =-0.1667 0.3333 0.0000 (  1683 PWs)   bands (ev):

    -5.3301   3.0394   4.2028   5.0735   8.0889   9.1321   9.8349  10.5833

          k =-0.2500 0.4167-0.0833 (  1687 PWs)   bands (ev):

    -4.9106   1.8417   3.6810   4.8103   8.3436   9.1343  10.2405  10.6296

          k =-0.3333 0.5000-0.1667 (  1681 PWs)   bands (ev):

    -4.3595   0.5926   3.4092   4.4984   8.3416   9.1049  10.3049  11.2474

          k = 0.5833-0.4167 0.7500 (  1684 PWs)   bands (ev):

    -3.7685  -0.4491   3.2781   4.2646   8.2595   8.9737  10.2370  12.4107

          k = 0.5000-0.3333 0.6667 (  1686 PWs)   bands (ev):

    -3.4514  -0.9203   3.2406   4.1781   8.2269   8.9091  10.1962  13.6598

          k =-0.1667 0.5000 0.0000 (  1675 PWs)   bands (ev):

    -4.7611   1.8582   3.5331   4.1958   7.5651   9.2519  10.4744  11.2657

          k =-0.2500 0.5833-0.0833 (  1683 PWs)   bands (ev):

    -4.2500   0.8482   3.0095   3.9232   7.8904   9.4772  10.2182  11.6492

          k = 0.6667-0.3333 0.8333 (  1689 PWs)   bands (ev):

    -3.6530  -0.1571   2.6562   3.7246   8.0105   9.9023  10.4855  11.6401

          k = 0.5833-0.2500 0.7500 (  1686 PWs)   bands (ev):

    -3.1846  -0.8247   2.4168   3.7074   8.1292   9.6381  11.5295  11.9248

          k = 0.5000-0.1667 0.6667 (  1686 PWs)   bands (ev):

    -3.3124  -0.6480   2.3076   3.8711   8.3584   9.4640  11.4375  12.3253

          k = 0.4167-0.0833 0.5833 (  1688 PWs)   bands (ev):

    -3.8722   0.1840   2.3900   4.1723   8.6838   9.3328  10.9464  11.4336

          k = 0.3333 0.0000 0.5000 (  1686 PWs)   bands (ev):

    -4.4487   1.1242   2.7978   4.5351   8.9372   9.0159  10.3970  10.9830

          k =-0.1667 0.6667-0.0000 (  1687 PWs)   bands (ev):

    -3.9816   0.6178   3.0421   3.4515   7.1877   8.2756  11.6668  12.7893

          k = 0.7500-0.2500 0.9167 (  1678 PWs)   bands (ev):

    -3.4016  -0.1874   2.4811   3.2460   7.5202   8.7762  11.3802  13.1484

          k = 0.6667-0.1667 0.8333 (  1685 PWs)   bands (ev):

    -2.8424  -0.8679   1.9834   3.2528   7.6718  10.0360  11.0911  13.0708

          k = 0.5833-0.0833 0.7500 (  1683 PWs)   bands (ev):

    -2.7785  -0.9321   1.7102   3.4417   7.9152  10.7499  11.7011  12.3227

          k = 0.5000 0.0000 0.6667 (  1677 PWs)   bands (ev):

    -3.2894  -0.3662   1.7949   3.7709   8.2829  10.3340  11.1598  12.4669

          k = 0.8333-0.1667 1.0000 (  1684 PWs)   bands (ev):

    -3.0123  -0.6533   2.7694   2.9598   7.0317   7.5496  13.0107  14.3314

          k = 0.7500-0.0833 0.9167 (  1680 PWs)   bands (ev):

    -2.4117  -1.2739   2.1785   2.9171   7.3222   8.4122  12.7070  14.1112

          k = 0.6667 0.0000 0.8333 (  1682 PWs)   bands (ev):

    -2.2730  -1.3766   1.7079   3.1056   7.5494   9.8999  12.2596  12.6451

          k =-0.1667-1.0000 0.0000 (  1686 PWs)   bands (ev):

    -1.8861  -1.8861   2.7365   2.7365   7.1413   7.1413  14.4251  14.4251

          k = 0.6667-0.3333 1.0000 (  1678 PWs)   bands (ev):

    -3.7092   0.1826   2.3472   3.5663   8.5968   9.4815   9.8801  12.6561

          k = 0.5833-0.2500 0.9167 (  1684 PWs)   bands (ev):

    -3.1142  -0.5564   2.0114   3.2477   8.9737   9.4842  10.4262  13.0765

          k = 0.5000-0.1667 0.8333 (  1688 PWs)   bands (ev):

    -2.7743  -0.9615   1.9187   3.1253   9.1390   9.2328  11.7732  12.1111

          k = 0.6667-0.1667 1.0000 (  1678 PWs)   bands (ev):

    -2.8117  -0.7944   2.1599   2.7565   8.4403   8.8543  11.0186  13.8495

          k = 0.5833-0.0833 0.9167 (  1682 PWs)   bands (ev):

    -2.3150  -1.2815   1.8640   2.6090   8.7807  10.0319  10.7377  12.1095

          k = 0.5000 0.0000 0.8333 (  1682 PWs)   bands (ev):

    -2.5379  -1.0578   1.7449   2.8229   9.0750  10.1897  10.6573  11.8643

          k =-0.3333-1.0000 0.0000 (  1678 PWs)   bands (ev):

    -1.8136  -1.8136   2.2825   2.2825   8.5154   8.5154  12.3671  12.3671

          k =-0.5000-1.0000 0.0000 (  1708 PWs)   bands (ev):

    -1.7748  -1.7748   2.0882   2.0882  10.0383  10.0383  10.6114  10.6114

     the Fermi energy is     6.1330 ev

     Writing output data file si.save/
 
     init_run     :      0.17s CPU      0.21s WALL (       1 calls)
     electrons    :      4.52s CPU      4.63s WALL (       1 calls)

     Called by init_run:
     wfcinit      :      0.00s CPU      0.00s WALL (       1 calls)
     potinit      :      0.02s CPU      0.03s WALL (       1 calls)
     hinit0       :      0.11s CPU      0.13s WALL (       1 calls)

     Called by electrons:
     c_bands      :      4.50s CPU      4.61s WALL (       1 calls)
     v_of_rho     :      0.02s CPU      0.02s WALL (       1 calls)
     newd         :      0.02s CPU      0.04s WALL (       1 calls)

     Called by c_bands:
     init_us_2    :      0.02s CPU      0.02s WALL (      72 calls)
     cegterg      :      4.11s CPU      4.19s WALL (      89 calls)

     Called by sum_band:

     Called by *egterg:
     h_psi        :      3.46s CPU      3.55s WALL (    1509 calls)
     s_psi        :      0.09s CPU      0.09s WALL (    1509 calls)
     g_psi        :      0.02s CPU      0.02s WALL (    1348 calls)
     cdiaghg      :      0.25s CPU      0.26s WALL (    1420 calls)

     Called by h_psi:
     h_psi:pot    :      3.44s CPU      3.53s WALL (    1509 calls)
     h_psi:calbec :      0.25s CPU      0.25s WALL (    1509 calls)
     vloc_psi     :      3.05s CPU      3.13s WALL (    1509 calls)
     add_vuspsi   :      0.13s CPU      0.13s WALL (    1509 calls)

     General routines
     calbec       :      0.24s CPU      0.25s WALL (    1509 calls)
     fft          :      0.01s CPU      0.03s WALL (      12 calls)
     fftw         :      2.66s CPU      2.73s WALL (   16386 calls)
     davcio       :      0.01s CPU      0.01s WALL (     144 calls)
 
     Parallel routines
     fft_scatt_xy :      0.30s CPU      0.31s WALL (   16398 calls)
     fft_scatt_yz :      0.52s CPU      0.54s WALL (   16398 calls)
 
     PWSCF        :      5.66s CPU      5.84s WALL

 
   This run was terminated on:   7:11:56  22Jul2019            

=------------------------------------------------------------------------------=
   JOB DONE.
=------------------------------------------------------------------------------=
