
     Program PWSCF v.6.4.1 starts on 25Jul2019 at  0:36:51 

     This program is part of the open-source Quantum ESPRESSO suite
     for quantum simulation of materials; please cite
         "P. Giannozzi et al., J. Phys.:Condens. Matter 21 395502 (2009);
         "P. Giannozzi et al., J. Phys.:Condens. Matter 29 465901 (2017);
          URL http://www.quantum-espresso.org", 
     in publications or presentations arising from this work. More details at
     http://www.quantum-espresso.org/quote

     Parallel version (MPI), running on     4 processors

     MPI processes distributed on     1 nodes
     R & G space division:  proc/nbgrp/npool/nimage =       4
     Reading input from si100.2_slab_relax.in

     Current dimensions of program PWSCF are:
     Max number of different atomic species (ntypx) = 10
     Max number of k-points (npk) =  40000
     Max angular momentum in pseudopotentials (lmaxx) =  3

     Subspace diagonalization in iterative solution of the eigenvalue problem:
     a serial algorithm will be used

 
     Parallelization info
     --------------------
     sticks:   dense  smooth     PW     G-vecs:    dense   smooth      PW
     Min        1016    1016    277               103947   103947   14767
     Max        1017    1017    278               103950   103950   14774
     Sum        4067    4067   1111               415795   415795   59085
 


     bravais-lattice index     =            8
     lattice parameter (alat)  =      29.2337  a.u.
     unit-cell volume          =   18737.6348 (a.u.)^3
     number of atoms/cell      =           56
     number of atomic types    =            2
     number of electrons       =       176.00
     number of Kohn-Sham states=          106
     kinetic-energy cutoff     =      30.0000  Ry
     charge density cutoff     =     120.0000  Ry
     convergence threshold     =      1.0E-07
     mixing beta               =       0.7000
     number of iterations used =            8  plain     mixing
     Exchange-correlation      = PBE ( 1  4  3  4 0 0)
     nstep                     =          200


     celldm(1)=  29.233748  celldm(2)=   0.500000  celldm(3)=   1.500000
     celldm(4)=   0.000000  celldm(5)=   0.000000  celldm(6)=   0.000000

     crystal axes: (cart. coord. in units of alat)
               a(1) = (   1.000000   0.000000   0.000000 )  
               a(2) = (   0.000000   0.500000   0.000000 )  
               a(3) = (   0.000000   0.000000   1.500000 )  

     reciprocal axes: (cart. coord. in units 2 pi/alat)
               b(1) = (  1.000000  0.000000  0.000000 )  
               b(2) = (  0.000000  2.000000  0.000000 )  
               b(3) = (  0.000000  0.000000  0.666667 )  


     PseudoPot. # 1 for Si read from file:
     /home/bngjn/qe/SSSP_precision_pseudos/Si.pbe-n-rrkjus_psl.1.0.0.UPF
     MD5 check sum: 0b0bb1205258b0d07b9f9672cf965d36
     Pseudo is Ultrasoft + core correction, Zval =  4.0
     Generated using "atomic" code by A. Dal Corso v.5.1
     Using radial grid of 1141 points,  6 beta functions with: 
                l(1) =   0
                l(2) =   0
                l(3) =   1
                l(4) =   1
                l(5) =   2
                l(6) =   2
     Q(r) pseudized with 0 coefficients 


     PseudoPot. # 2 for H  read from file:
     /home/bngjn/qe/SSSP_precision_pseudos/H_ONCV_PBE-1.0.oncvpsp.upf
     MD5 check sum: 1790becc920ee074925cf490c71280fe
     Pseudo is Norm-conserving, Zval =  1.0
     Generated using ONCVPSP code by D. R. Hamann
     Using radial grid of 1166 points,  2 beta functions with: 
                l(1) =   0
                l(2) =   0

     atomic species   valence    mass     pseudopotential
        Si             4.00    28.08550     Si( 1.00)
        H              1.00     1.00784     H ( 1.00)

     No symmetry found



   Cartesian axes

     site n.     atom                  positions (alat units)
         1           H   tau(   1) = (   0.0000000  -0.0675500  -0.0675500  )
         2           H   tau(   2) = (   0.0000000   0.0675500  -0.0675500  )
         3           H   tau(   3) = (   0.2500000  -0.0675500  -0.0675500  )
         4           H   tau(   4) = (   0.2500000   0.0675500  -0.0675500  )
         5           H   tau(   5) = (   0.2500000   0.1824500  -0.0675500  )
         6           H   tau(   6) = (   0.2500000   0.3175500  -0.0675500  )
         7           H   tau(   7) = (   0.5000000   0.1824500  -0.0675500  )
         8           H   tau(   8) = (   0.5000000   0.3175500  -0.0675500  )
         9           H   tau(   9) = (   0.7500000   0.1824500  -0.0675500  )
        10           H   tau(  10) = (   0.7500000   0.3175500  -0.0675500  )
        11           H   tau(  11) = (   0.0000000   0.1824500  -0.0675500  )
        12           H   tau(  12) = (   0.0000000   0.3175500  -0.0675500  )
        13           H   tau(  13) = (   0.5000000  -0.0675500  -0.0675500  )
        14           H   tau(  14) = (   0.5000000   0.0675500  -0.0675500  )
        15           H   tau(  15) = (   0.7500000  -0.0675500  -0.0675500  )
        16           H   tau(  16) = (   0.7500000   0.0675500  -0.0675500  )
        17           Si  tau(  17) = (   0.0000000   0.0000000   0.0000000  )
        18           Si  tau(  18) = (   0.2500000   0.0000000   0.0000000  )
        19           Si  tau(  19) = (   0.0000000   0.2500000   0.0000000  )
        20           Si  tau(  20) = (   0.2500000   0.2500000   0.0000000  )
        21           Si  tau(  21) = (   0.5000000   0.0000000   0.0000000  )
        22           Si  tau(  22) = (   0.7500000   0.0000000   0.0000000  )
        23           Si  tau(  23) = (   0.5000000   0.2500000   0.0000000  )
        24           Si  tau(  24) = (   0.7500000   0.2500000   0.0000000  )
        25           Si  tau(  25) = (   0.1250000   0.0000000   0.0883883  )
        26           Si  tau(  26) = (   0.3750000   0.0000000   0.0883883  )
        27           Si  tau(  27) = (   0.1250000   0.2500000   0.0883883  )
        28           Si  tau(  28) = (   0.3750000   0.2500000   0.0883883  )
        29           Si  tau(  29) = (   0.6250000   0.0000000   0.0883883  )
        30           Si  tau(  30) = (   0.8750000   0.0000000   0.0883883  )
        31           Si  tau(  31) = (   0.6250000   0.2500000   0.0883883  )
        32           Si  tau(  32) = (   0.8750000   0.2500000   0.0883883  )
        33           Si  tau(  33) = (   0.6250000   0.3750000   0.1767767  )
        34           Si  tau(  34) = (   0.1250000   0.1250000   0.1767767  )
        35           Si  tau(  35) = (   0.3750000   0.1250000   0.1767767  )
        36           Si  tau(  36) = (   0.3750000   0.3750000   0.1767767  )
        37           Si  tau(  37) = (   0.8750000   0.1250000   0.1767767  )
        38           Si  tau(  38) = (   0.8750000   0.3750000   0.1767767  )
        39           Si  tau(  39) = (   0.1250000   0.3750000   0.1767767  )
        40           Si  tau(  40) = (   0.6250000   0.1250000   0.1767767  )
        41           Si  tau(  41) = (   0.7500000   0.3750000   0.2651650  )
        42           Si  tau(  42) = (   0.2500000   0.1250000   0.2651650  )
        43           Si  tau(  43) = (   0.5000000   0.1250000   0.2651650  )
        44           Si  tau(  44) = (   0.5000000   0.3750000   0.2651650  )
        45           Si  tau(  45) = (   0.0000000   0.1250000   0.2651650  )
        46           Si  tau(  46) = (   0.0000000   0.3750000   0.2651650  )
        47           Si  tau(  47) = (   0.2500000   0.3750000   0.2651650  )
        48           Si  tau(  48) = (   0.7500000   0.1250000   0.2651650  )
        49           Si  tau(  49) = (   0.0010000   0.0000000   0.3535534  )
        50           Si  tau(  50) = (   0.2490000   0.0000000   0.3535534  )
        51           Si  tau(  51) = (   0.0020000   0.2500000   0.3535534  )
        52           Si  tau(  52) = (   0.2480000   0.2500000   0.3535534  )
        53           Si  tau(  53) = (   0.5020000   0.0000000   0.3535534  )
        54           Si  tau(  54) = (   0.7490000   0.0000000   0.3535534  )
        55           Si  tau(  55) = (   0.5010000   0.2500000   0.3535534  )
        56           Si  tau(  56) = (   0.7470000   0.2500000   0.3535534  )

     number of k points=     6  gaussian smearing, width (Ry)=  0.0050
                       cart. coord. in units 2pi/alat
        k(    1) = (   0.0000000   0.0000000   0.0000000), wk =   0.2500000
        k(    2) = (   0.0000000   0.5000000   0.0000000), wk =   0.5000000
        k(    3) = (   0.0000000  -1.0000000   0.0000000), wk =   0.2500000
        k(    4) = (  -0.5000000   0.0000000   0.0000000), wk =   0.2500000
        k(    5) = (  -0.5000000   0.5000000   0.0000000), wk =   0.5000000
        k(    6) = (  -0.5000000  -1.0000000   0.0000000), wk =   0.2500000

     Dense  grid:   415795 G-vectors     FFT dimensions: ( 108,  54, 160)

     Estimated max dynamical RAM per process >     926.23 MB

     Estimated total dynamical RAM >       3.62 GB

     Check: negative core charge=   -0.000002

     Initial potential from superposition of free atoms

     starting charge  175.97748, renormalised to  176.00000

     negative rho (up, down):  4.169E-03 0.000E+00
     Starting wfcs are  176 randomized atomic wfcs

     total cpu time spent up to now is       57.0 secs

     Self-consistent Calculation

     iteration #  1     ecut=    30.00 Ry     beta= 0.70
     Davidson diagonalization with overlap
     ethr =  1.00E-02,  avg # of iterations =  3.0

     negative rho (up, down):  2.800E-03 0.000E+00

     total cpu time spent up to now is      177.2 secs

     total energy              =    -473.32405311 Ry
     Harris-Foulkes estimate   =    -474.40898340 Ry
     estimated scf accuracy    <       2.40439863 Ry

     iteration #  2     ecut=    30.00 Ry     beta= 0.70
     Davidson diagonalization with overlap
     ethr =  1.37E-03,  avg # of iterations =  4.5

     negative rho (up, down):  2.863E-03 0.000E+00

     total cpu time spent up to now is      297.9 secs

     total energy              =    -469.85679555 Ry
     Harris-Foulkes estimate   =    -475.25045605 Ry
     estimated scf accuracy    <      25.72331494 Ry

     iteration #  3     ecut=    30.00 Ry     beta= 0.70
     Davidson diagonalization with overlap
     ethr =  1.37E-03,  avg # of iterations =  5.7

     negative rho (up, down):  3.188E-03 0.000E+00

     total cpu time spent up to now is      429.8 secs

     total energy              =    -473.28477614 Ry
     Harris-Foulkes estimate   =    -474.48020054 Ry
     estimated scf accuracy    <       7.86228813 Ry

     iteration #  4     ecut=    30.00 Ry     beta= 0.70
     Davidson diagonalization with overlap
     ethr =  1.37E-03,  avg # of iterations =  3.3

     negative rho (up, down):  3.369E-03 0.000E+00

     total cpu time spent up to now is      529.5 secs

     total energy              =    -473.75591062 Ry
     Harris-Foulkes estimate   =    -473.90690949 Ry
     estimated scf accuracy    <       0.56072187 Ry

     iteration #  5     ecut=    30.00 Ry     beta= 0.70
     Davidson diagonalization with overlap
     ethr =  3.19E-04,  avg # of iterations =  6.3

     negative rho (up, down):  3.428E-03 0.000E+00

     total cpu time spent up to now is      643.6 secs

     total energy              =    -473.72294492 Ry
     Harris-Foulkes estimate   =    -473.96703133 Ry
     estimated scf accuracy    <       2.29273580 Ry

     iteration #  6     ecut=    30.00 Ry     beta= 0.70
     Davidson diagonalization with overlap
     ethr =  3.19E-04,  avg # of iterations =  2.7

     negative rho (up, down):  3.574E-03 0.000E+00

     total cpu time spent up to now is      732.1 secs

     total energy              =    -473.80614063 Ry
     Harris-Foulkes estimate   =    -473.83528422 Ry
     estimated scf accuracy    <       0.23000692 Ry

     iteration #  7     ecut=    30.00 Ry     beta= 0.70
     Davidson diagonalization with overlap
     ethr =  1.31E-04,  avg # of iterations =  3.2

     negative rho (up, down):  3.606E-03 0.000E+00

     total cpu time spent up to now is      823.3 secs

     total energy              =    -473.80734421 Ry
     Harris-Foulkes estimate   =    -473.83286345 Ry
     estimated scf accuracy    <       0.28006546 Ry

     iteration #  8     ecut=    30.00 Ry     beta= 0.70
     Davidson diagonalization with overlap
     ethr =  1.31E-04,  avg # of iterations =  1.0

     negative rho (up, down):  3.661E-03 0.000E+00

     total cpu time spent up to now is      908.8 secs

     total energy              =    -473.81397644 Ry
     Harris-Foulkes estimate   =    -473.82712658 Ry
     estimated scf accuracy    <       0.14852348 Ry

     iteration #  9     ecut=    30.00 Ry     beta= 0.70
     Davidson diagonalization with overlap
     ethr =  8.44E-05,  avg # of iterations =  1.0

     negative rho (up, down):  3.701E-03 0.000E+00

     total cpu time spent up to now is      994.4 secs

     total energy              =    -473.81697119 Ry
     Harris-Foulkes estimate   =    -473.82028390 Ry
     estimated scf accuracy    <       0.02840731 Ry

     iteration # 10     ecut=    30.00 Ry     beta= 0.70
     Davidson diagonalization with overlap
     ethr =  1.61E-05,  avg # of iterations =  7.3

     negative rho (up, down):  3.760E-03 0.000E+00

     total cpu time spent up to now is     1098.9 secs

     total energy              =    -473.81638034 Ry
     Harris-Foulkes estimate   =    -473.81847534 Ry
     estimated scf accuracy    <       0.01130121 Ry

     iteration # 11     ecut=    30.00 Ry     beta= 0.70
     Davidson diagonalization with overlap
     ethr =  6.42E-06,  avg # of iterations =  8.7

     negative rho (up, down):  3.780E-03 0.000E+00

     total cpu time spent up to now is     1210.3 secs

     total energy              =    -473.81697416 Ry
     Harris-Foulkes estimate   =    -473.81796884 Ry
     estimated scf accuracy    <       0.00385021 Ry

     iteration # 12     ecut=    30.00 Ry     beta= 0.70
     Davidson diagonalization with overlap
     ethr =  2.19E-06,  avg # of iterations =  6.7

     negative rho (up, down):  3.780E-03 0.000E+00

     total cpu time spent up to now is     1311.1 secs

     total energy              =    -473.81736612 Ry
     Harris-Foulkes estimate   =    -473.81767438 Ry
     estimated scf accuracy    <       0.00104246 Ry

     iteration # 13     ecut=    30.00 Ry     beta= 0.70
     Davidson diagonalization with overlap
     ethr =  5.92E-07,  avg # of iterations =  4.5

     negative rho (up, down):  3.778E-03 0.000E+00

     total cpu time spent up to now is     1412.9 secs

     total energy              =    -473.81744872 Ry
     Harris-Foulkes estimate   =    -473.81774012 Ry
     estimated scf accuracy    <       0.00120660 Ry

     iteration # 14     ecut=    30.00 Ry     beta= 0.70
     Davidson diagonalization with overlap
     ethr =  5.92E-07,  avg # of iterations =  2.0

     negative rho (up, down):  3.776E-03 0.000E+00

     total cpu time spent up to now is     1502.0 secs

     total energy              =    -473.81754370 Ry
     Harris-Foulkes estimate   =    -473.81760397 Ry
     estimated scf accuracy    <       0.00023758 Ry

     iteration # 15     ecut=    30.00 Ry     beta= 0.70
     Davidson diagonalization with overlap
     ethr =  1.35E-07,  avg # of iterations =  3.0

     negative rho (up, down):  3.775E-03 0.000E+00

     total cpu time spent up to now is     1602.4 secs

     total energy              =    -473.81752105 Ry
     Harris-Foulkes estimate   =    -473.81762595 Ry
     estimated scf accuracy    <       0.00072912 Ry

     iteration # 16     ecut=    30.00 Ry     beta= 0.70
     Davidson diagonalization with overlap
     ethr =  1.35E-07,  avg # of iterations =  2.0

     negative rho (up, down):  3.776E-03 0.000E+00

     total cpu time spent up to now is     1691.5 secs

     total energy              =    -473.81755333 Ry
     Harris-Foulkes estimate   =    -473.81761561 Ry
     estimated scf accuracy    <       0.00074875 Ry

     iteration # 17     ecut=    30.00 Ry     beta= 0.70
     Davidson diagonalization with overlap
     ethr =  1.35E-07,  avg # of iterations =  1.2

     negative rho (up, down):  3.776E-03 0.000E+00

     total cpu time spent up to now is     1777.6 secs

     total energy              =    -473.81757927 Ry
     Harris-Foulkes estimate   =    -473.81758712 Ry
     estimated scf accuracy    <       0.00002415 Ry

     iteration # 18     ecut=    30.00 Ry     beta= 0.70
     Davidson diagonalization with overlap
     ethr =  1.37E-08,  avg # of iterations =  3.0

     negative rho (up, down):  3.776E-03 0.000E+00

     total cpu time spent up to now is     1874.7 secs

     total energy              =    -473.81757075 Ry
     Harris-Foulkes estimate   =    -473.81759934 Ry
     estimated scf accuracy    <       0.00038106 Ry

     iteration # 19     ecut=    30.00 Ry     beta= 0.70
     Davidson diagonalization with overlap
     ethr =  1.37E-08,  avg # of iterations =  2.0

     negative rho (up, down):  3.776E-03 0.000E+00

     total cpu time spent up to now is     1965.7 secs

     total energy              =    -473.81758399 Ry
     Harris-Foulkes estimate   =    -473.81758767 Ry
     estimated scf accuracy    <       0.00002137 Ry

     iteration # 20     ecut=    30.00 Ry     beta= 0.70
     Davidson diagonalization with overlap
     ethr =  1.21E-08,  avg # of iterations =  1.0

     negative rho (up, down):  3.776E-03 0.000E+00

     total cpu time spent up to now is     2051.3 secs

     total energy              =    -473.81758547 Ry
     Harris-Foulkes estimate   =    -473.81758645 Ry
     estimated scf accuracy    <       0.00000371 Ry

     iteration # 21     ecut=    30.00 Ry     beta= 0.70
     Davidson diagonalization with overlap
     ethr =  2.11E-09,  avg # of iterations =  3.0

     negative rho (up, down):  3.776E-03 0.000E+00

     total cpu time spent up to now is     2145.7 secs

     total energy              =    -473.81758593 Ry
     Harris-Foulkes estimate   =    -473.81758616 Ry
     estimated scf accuracy    <       0.00000079 Ry

     iteration # 22     ecut=    30.00 Ry     beta= 0.70
     Davidson diagonalization with overlap
     ethr =  4.50E-10,  avg # of iterations =  2.2

     negative rho (up, down):  3.776E-03 0.000E+00

     total cpu time spent up to now is     2239.8 secs

     total energy              =    -473.81758600 Ry
     Harris-Foulkes estimate   =    -473.81758613 Ry
     estimated scf accuracy    <       0.00000046 Ry

     iteration # 23     ecut=    30.00 Ry     beta= 0.70
     Davidson diagonalization with overlap
     ethr =  2.63E-10,  avg # of iterations =  2.0

     negative rho (up, down):  3.776E-03 0.000E+00

     total cpu time spent up to now is     2328.8 secs

     total energy              =    -473.81758605 Ry
     Harris-Foulkes estimate   =    -473.81758611 Ry
     estimated scf accuracy    <       0.00000020 Ry

     iteration # 24     ecut=    30.00 Ry     beta= 0.70
     Davidson diagonalization with overlap
     ethr =  1.15E-10,  avg # of iterations =  2.0

     negative rho (up, down):  3.776E-03 0.000E+00

     total cpu time spent up to now is     2416.5 secs

     End of self-consistent calculation

          k = 0.0000 0.0000 0.0000 ( 52087 PWs)   bands (ev):

   -12.9674 -12.4776 -12.4490 -11.6131 -11.3257 -11.3004 -11.2893 -11.2129
   -11.1961 -10.9458 -10.7920 -10.7793 -10.7706 -10.7402 -10.4224  -9.8612
    -9.8518  -9.7701  -9.5093  -9.3577  -9.2765  -9.1982  -9.0253  -8.7581
    -8.7221  -8.3194  -8.0701  -8.0571  -7.9107  -7.9092  -7.8988  -7.8669
    -7.8048  -7.4060  -7.3888  -7.3769  -7.0627  -6.4333  -6.3984  -6.3983
    -6.2703  -6.2620  -6.2386  -5.5238  -5.1471  -4.9087  -4.8075  -4.7849
    -4.7758  -4.7030  -4.6412  -4.6314  -4.5882  -4.5878  -4.5858  -4.5545
    -4.5195  -4.4748  -4.4657  -4.1449  -4.1188  -4.1136  -4.0852  -4.0702
    -3.9982  -3.9486  -3.8116  -3.7928  -3.3463  -3.2447  -3.1665  -3.1517
    -2.9102  -2.8774  -2.6997  -2.6236  -2.6162  -2.4713  -2.4371  -2.4273
    -2.4263  -2.3104  -2.3048  -2.2962  -2.2432  -2.0411  -2.0031  -1.9547
    -1.9020  -1.8685  -1.1807  -1.0813  -1.0703  -1.0103  -0.4530  -0.3082
    -0.1026   0.1843   0.1929   0.2348   0.2463   0.2674   0.3201   0.3862
     0.6508   0.7279

          k = 0.0000 0.5000 0.0000 ( 52005 PWs)   bands (ev):

   -12.8407 -12.3498 -12.3215 -11.9060 -11.5120 -11.4027 -11.3771 -11.1909
   -11.1052 -11.0886 -11.0371 -10.8110 -10.5539 -10.5370 -10.3176 -10.1495
    -9.8164  -9.7374  -9.7276  -9.6485  -9.6305  -9.0069  -8.8875  -8.8659
    -8.4532  -8.3153  -8.2949  -8.2716  -7.7965  -7.6658  -7.4914  -7.4456
    -7.4319  -7.1570  -7.1121  -7.0967  -7.0049  -6.2068  -6.1976  -5.9586
    -5.9312  -5.9310  -5.8434  -5.5783  -5.3753  -5.1712  -5.0364  -5.0344
    -4.9802  -4.9401  -4.9083  -4.8894  -4.8374  -4.8292  -4.6542  -4.5225
    -4.4502  -4.4374  -4.4338  -4.4047  -4.2448  -4.2410  -4.2237  -4.1995
    -3.8535  -3.7057  -3.6983  -3.6970  -3.6907  -3.6653  -3.5221  -3.5168
    -3.5107  -3.3469  -3.1977  -3.0416  -3.0293  -3.0288  -2.5842  -2.5338
    -2.4715  -2.3696  -2.3353  -2.3218  -2.3060  -1.9808  -1.9632  -1.9153
    -1.8395  -1.7965  -1.2662  -1.1680  -0.9772  -0.9113  -0.2200   0.3055
     0.3548   0.3742   0.4673   0.6086   0.6357   0.6583   0.8348   0.8487
     0.9356   1.0313

          k = 0.0000-1.0000 0.0000 ( 51922 PWs)   bands (ev):

   -12.4718 -12.4716 -11.9769 -11.9766 -11.9495 -11.9489 -11.2511 -11.2510
   -10.8204 -10.8191 -10.8042 -10.8027 -10.7920 -10.7917 -10.4152 -10.4150
   -10.0276 -10.0273  -9.3809  -9.3807  -9.3693  -9.3689  -9.3130  -9.3128
    -7.9104  -7.9082  -7.8950  -7.8928  -7.7821  -7.7820  -7.7615  -7.7615
    -7.0231  -7.0230  -6.2727  -6.2655  -6.2583  -6.2518  -6.0428  -6.0424
    -5.8005  -5.8003  -5.2413  -5.2395  -5.2323  -5.2308  -5.1748  -5.1747
    -5.1718  -5.1688  -5.1679  -5.1653  -4.8743  -4.8743  -4.7376  -4.7374
    -4.7350  -4.7339  -4.7152  -4.7144  -4.6220  -4.6214  -4.2872  -4.2869
    -4.0987  -4.0955  -4.0898  -4.0867  -4.0682  -4.0680  -3.5842  -3.5840
    -3.4399  -3.4366  -3.4307  -3.4273  -3.3853  -3.3853  -2.5117  -2.5113
    -2.1503  -2.1376  -2.0981  -2.0967  -2.0884  -2.0836  -2.0550  -2.0438
    -2.0081  -2.0080  -1.1645  -1.1486  -1.0841  -1.0677   0.0814   0.0814
     0.4982   0.4994   0.7806   0.7809   0.8892   0.8894   0.9738   0.9740
     1.1003   1.1013

          k =-0.5000 0.0000 0.0000 ( 51914 PWs)   bands (ev):

   -12.8394 -12.8391 -11.8783 -11.8773 -11.5046 -11.5042 -11.1701 -11.1697
   -11.1546 -11.1545 -10.8450 -10.8438 -10.2190 -10.2185 -10.1757 -10.1755
   -10.1142 -10.1129  -9.7685  -9.7683  -8.9468  -8.9461  -8.6674  -8.6667
    -8.4149  -8.4144  -8.3806  -8.3783  -7.9242  -7.9239  -7.8416  -7.8414
    -7.5866  -7.5856  -7.3814  -7.3813  -6.9213  -6.9193  -6.4161  -6.4158
    -6.3278  -6.3273  -5.4067  -5.4055  -5.2047  -5.2036  -5.0924  -5.0923
    -4.9910  -4.9894  -4.6425  -4.6424  -4.4965  -4.4961  -4.4081  -4.4073
    -4.3566  -4.3561  -4.0551  -4.0547  -4.0410  -4.0409  -4.0141  -4.0134
    -3.6381  -3.6369  -3.5444  -3.5433  -3.5001  -3.4999  -3.4562  -3.4561
    -3.2938  -3.2936  -3.0045  -3.0036  -2.5050  -2.5011  -2.4566  -2.4561
    -2.3811  -2.3804  -2.2509  -2.2507  -2.1326  -2.1270  -1.9401  -1.9386
    -1.7933  -1.7920  -1.5581  -1.5571  -0.3804  -0.3736  -0.1546  -0.1532
    -0.0432  -0.0328   0.0167   0.0172   0.4829   0.4830   0.5025   0.5042
     0.6028   0.6032

          k =-0.5000 0.5000 0.0000 ( 51960 PWs)   bands (ev):

   -12.7125 -12.7122 -11.7754 -11.7751 -11.7485 -11.7475 -11.4021 -11.4017
   -10.9112 -10.9109 -10.7800 -10.7792 -10.7231 -10.7220 -10.1023 -10.1018
   -10.0078 -10.0070  -9.6459  -9.6458  -9.2074  -9.2073  -8.9491  -8.9487
    -8.3329  -8.3321  -8.2690  -8.2686  -7.5971  -7.5963  -7.4610  -7.4609
    -7.4464  -7.4448  -7.1131  -7.1129  -6.8569  -6.8549  -5.9847  -5.9842
    -5.8477  -5.8475  -5.4539  -5.4530  -5.4279  -5.4272  -5.2641  -5.2632
    -5.0598  -5.0595  -4.9076  -4.9074  -4.6082  -4.6079  -4.4657  -4.4645
    -4.4149  -4.4144  -4.3314  -4.3313  -4.0987  -4.0978  -4.0582  -4.0573
    -3.9552  -3.9545  -3.6601  -3.6595  -3.6443  -3.6438  -3.5053  -3.5047
    -3.3920  -3.3911  -3.2699  -3.2693  -3.1997  -3.1993  -2.9669  -2.9666
    -2.4117  -2.4075  -2.3671  -2.3662  -2.0831  -2.0778  -1.9449  -1.9442
    -1.7247  -1.7233  -1.4997  -1.4988  -0.1989  -0.1933  -0.1650  -0.1575
     0.2829   0.2846   0.7626   0.7627   0.8603   0.8605   0.9497   0.9508
     1.0320   1.0332

          k =-0.5000-1.0000 0.0000 ( 52096 PWs)   bands (ev):

   -12.3427 -12.3427 -12.3425 -12.3422 -11.3690 -11.3688 -11.3678 -11.3673
   -11.1359 -11.1359 -11.1356 -11.1352 -10.3869 -10.3868 -10.3853 -10.3848
    -9.7613  -9.7612  -9.7610  -9.7605  -9.3031  -9.3029  -9.3028  -9.3027
    -7.8535  -7.8535  -7.8533  -7.8528  -7.7862  -7.7859  -7.7840  -7.7838
    -6.8370  -6.8359  -6.8299  -6.8292  -6.0251  -6.0246  -6.0237  -6.0235
    -5.6789  -5.6787  -5.6778  -5.6776  -5.1417  -5.1413  -5.1406  -5.1404
    -5.0759  -5.0758  -5.0727  -5.0727  -4.6988  -4.6987  -4.6985  -4.6981
    -4.6616  -4.6608  -4.6604  -4.6599  -4.4040  -4.4035  -4.4013  -4.4011
    -4.2237  -4.2236  -4.2214  -4.2210  -3.8642  -3.8642  -3.8611  -3.8609
    -3.3266  -3.3266  -3.3252  -3.3248  -3.2279  -3.2277  -3.2269  -3.2269
    -2.1823  -2.1774  -2.1685  -2.1659  -2.0306  -2.0299  -2.0275  -2.0254
    -1.7110  -1.7108  -1.7107  -1.7101  -0.1909  -0.1896  -0.1765  -0.1729
     0.8774   0.8780   0.8789   0.8789   1.0898   1.0907   1.0909   1.1526
     1.1535   1.1553

     the Fermi energy is    -1.9072 ev

!    total energy              =    -473.81758606 Ry
     Harris-Foulkes estimate   =    -473.81758609 Ry
     estimated scf accuracy    <       0.00000004 Ry

     The total energy is the sum of the following terms:

     one-electron contribution =   -2914.99414292 Ry
     hartree contribution      =    1488.76082861 Ry
     xc contribution           =    -254.94472831 Ry
     ewald contribution        =    1207.36471891 Ry
     smearing contrib. (-TS)   =      -0.00426236 Ry

     convergence has been achieved in  24 iterations

     negative rho (up, down):  3.776E-03 0.000E+00

     Forces acting on atoms (cartesian axes, Ry/au):

     atom    1 type  2   force =     0.00027431   -0.02386161    0.00759899
     atom    2 type  2   force =     0.00027432    0.02386167    0.00759900
     atom    3 type  2   force =    -0.00025874   -0.02385845    0.00759102
     atom    4 type  2   force =    -0.00025878    0.02385851    0.00759101
     atom    5 type  2   force =    -0.00022427   -0.02386095    0.00760375
     atom    6 type  2   force =    -0.00022418    0.02386090    0.00760375
     atom    7 type  2   force =     0.00022514   -0.02385699    0.00760485
     atom    8 type  2   force =     0.00022517    0.02385711    0.00760486
     atom    9 type  2   force =    -0.00021592   -0.02385735    0.00759051
     atom   10 type  2   force =    -0.00021595    0.02385734    0.00759055
     atom   11 type  2   force =     0.00022970   -0.02385760    0.00758773
     atom   12 type  2   force =     0.00022967    0.02385769    0.00758773
     atom   13 type  2   force =     0.00027605   -0.02385815    0.00760226
     atom   14 type  2   force =     0.00027603    0.02385815    0.00760225
     atom   15 type  2   force =    -0.00024311   -0.02386235    0.00760504
     atom   16 type  2   force =    -0.00024307    0.02386236    0.00760495
     atom   17 type  1   force =    -0.00070356   -0.00000001   -0.00173606
     atom   18 type  1   force =     0.00069069   -0.00000008   -0.00170968
     atom   19 type  1   force =    -0.00056434   -0.00000019   -0.00173627
     atom   20 type  1   force =     0.00054436    0.00000017   -0.00171292
     atom   21 type  1   force =    -0.00070245    0.00000001   -0.00170111
     atom   22 type  1   force =     0.00065863   -0.00000007   -0.00172793
     atom   23 type  1   force =    -0.00054130    0.00000003   -0.00171171
     atom   24 type  1   force =     0.00052855    0.00000017   -0.00172021
     atom   25 type  1   force =    -0.00001653   -0.00000008   -0.00959188
     atom   26 type  1   force =     0.00000879   -0.00000009   -0.00949385
     atom   27 type  1   force =    -0.00001896    0.00000016   -0.00963318
     atom   28 type  1   force =     0.00000473    0.00000000   -0.00949870
     atom   29 type  1   force =     0.00014206   -0.00000012   -0.00961159
     atom   30 type  1   force =     0.00007756   -0.00000014   -0.00949130
     atom   31 type  1   force =     0.00002724    0.00000008   -0.00965792
     atom   32 type  1   force =     0.00006669   -0.00000014   -0.00947263
     atom   33 type  1   force =    -0.00010038   -0.00019948   -0.00084005
     atom   34 type  1   force =     0.00003976    0.00017036   -0.00090335
     atom   35 type  1   force =     0.00000293   -0.00017505   -0.00133508
     atom   36 type  1   force =     0.00000311    0.00017501   -0.00133514
     atom   37 type  1   force =    -0.00009634   -0.00006636   -0.00142640
     atom   38 type  1   force =    -0.00009633    0.00006644   -0.00142686
     atom   39 type  1   force =     0.00003972   -0.00017036   -0.00090336
     atom   40 type  1   force =    -0.00010022    0.00019942   -0.00083966
     atom   41 type  1   force =     0.00314508   -0.00005799    0.00230430
     atom   42 type  1   force =     0.00284817   -0.00000247    0.00222727
     atom   43 type  1   force =    -0.00274785   -0.00002978    0.00226587
     atom   44 type  1   force =    -0.00274782    0.00002956    0.00226547
     atom   45 type  1   force =    -0.00281654    0.00001531    0.00220659
     atom   46 type  1   force =    -0.00281648   -0.00001539    0.00220638
     atom   47 type  1   force =     0.00284787    0.00000250    0.00222700
     atom   48 type  1   force =     0.00314509    0.00005798    0.00230430
     atom   49 type  1   force =     0.00405958   -0.00000011   -0.00490974
     atom   50 type  1   force =    -0.00434540    0.00000009   -0.00485283
     atom   51 type  1   force =     0.00652023   -0.00000008   -0.00501190
     atom   52 type  1   force =    -0.00584512   -0.00000012   -0.00516562
     atom   53 type  1   force =     0.00486060    0.00000025   -0.00512221
     atom   54 type  1   force =    -0.00462432    0.00000038   -0.00498542
     atom   55 type  1   force =     0.00561152   -0.00000006   -0.00505928
     atom   56 type  1   force =    -0.00711540   -0.00000001   -0.00525156

     Total force =     0.023693     Total SCF correction =     0.000191

     BFGS Geometry Optimization

     number of scf cycles    =   1
     number of bfgs steps    =   0

     energy   new            =    -473.8175860585 Ry

     new trust radius        =       0.0088435133 bohr
     new conv_thr            =       0.0000001000 Ry


ATOMIC_POSITIONS (alat)
H        0.000000000  -0.067550000  -0.067550000    0   0   0
H        0.000000000   0.067550000  -0.067550000    0   0   0
H        0.250000000  -0.067550000  -0.067550000    0   0   0
H        0.250000000   0.067550000  -0.067550000    0   0   0
H        0.250000000   0.182450000  -0.067550000    0   0   0
H        0.250000000   0.317550000  -0.067550000    0   0   0
H        0.500000000   0.182450000  -0.067550000    0   0   0
H        0.500000000   0.317550000  -0.067550000    0   0   0
H        0.750000000   0.182450000  -0.067550000    0   0   0
H        0.750000000   0.317550000  -0.067550000    0   0   0
H        0.000000000   0.182450000  -0.067550000    0   0   0
H        0.000000000   0.317550000  -0.067550000    0   0   0
H        0.500000000  -0.067550000  -0.067550000    0   0   0
H        0.500000000   0.067550000  -0.067550000    0   0   0
H        0.750000000  -0.067550000  -0.067550000    0   0   0
H        0.750000000   0.067550000  -0.067550000    0   0   0
Si       0.000000000   0.000000000   0.000000000    0   0   0
Si       0.250000000   0.000000000   0.000000000    0   0   0
Si       0.000000000   0.250000000   0.000000000    0   0   0
Si       0.250000000   0.250000000   0.000000000    0   0   0
Si       0.500000000   0.000000000   0.000000000    0   0   0
Si       0.750000000   0.000000000   0.000000000    0   0   0
Si       0.500000000   0.250000000   0.000000000    0   0   0
Si       0.750000000   0.250000000   0.000000000    0   0   0
Si       0.125000000   0.000000000   0.088388348    0   0   0
Si       0.375000000   0.000000000   0.088388348    0   0   0
Si       0.125000000   0.250000000   0.088388348    0   0   0
Si       0.375000000   0.250000000   0.088388348    0   0   0
Si       0.625000000   0.000000000   0.088388348    0   0   0
Si       0.875000000   0.000000000   0.088388348    0   0   0
Si       0.625000000   0.250000000   0.088388348    0   0   0
Si       0.875000000   0.250000000   0.088388348    0   0   0
Si       0.624996566   0.374993176   0.176747961
Si       0.125001360   0.125005828   0.176745795
Si       0.375000100   0.124994012   0.176731027
Si       0.375000106   0.375005987   0.176731025
Si       0.874996705   0.124997730   0.176727903
Si       0.874996705   0.375002273   0.176727887
Si       0.125001359   0.374994172   0.176745795
Si       0.624996572   0.125006821   0.176747974
Si       0.750107584   0.374998016   0.265243867
Si       0.250097427   0.124999916   0.265241232
Si       0.499906004   0.124998981   0.265242553
Si       0.499906005   0.375001011   0.265242539
Si      -0.000096345   0.125000524   0.265240525
Si      -0.000096343   0.374999474   0.265240518
Si       0.250097417   0.375000085   0.265241223
Si       0.750107584   0.125001983   0.265243867
Si       0.001138866  -0.000000004   0.353385444
Si       0.248851357   0.000000003   0.353387391
Si       0.002223038   0.249999997   0.353381950
Si       0.247800056   0.249999996   0.353376691
Si       0.502166267   0.000000008   0.353378176
Si       0.748841816   0.000000013   0.353382855
Si       0.501191954   0.249999998   0.353380329
Si       0.746756603   0.250000000   0.353373752



     Writing output data file si.save/
     NEW-OLD atomic charge density approx. for the potential

     Check: negative core charge=   -0.000002

     negative rho (up, down):  3.773E-03 0.000E+00

     total cpu time spent up to now is     2437.5 secs

     Self-consistent Calculation

     iteration #  1     ecut=    30.00 Ry     beta= 0.70
     Davidson diagonalization with overlap
     ethr =  1.00E-06,  avg # of iterations =  3.0

     Threshold (ethr) on eigenvalues was too large:
     Diagonalizing with lowered threshold

     Davidson diagonalization with overlap
     ethr =  6.94E-08,  avg # of iterations =  1.8

     negative rho (up, down):  3.775E-03 0.000E+00

     total cpu time spent up to now is     2638.4 secs

     total energy              =    -473.81807897 Ry
     Harris-Foulkes estimate   =    -473.81815864 Ry
     estimated scf accuracy    <       0.00012552 Ry

     iteration #  2     ecut=    30.00 Ry     beta= 0.70
     Davidson diagonalization with overlap
     ethr =  7.13E-08,  avg # of iterations =  4.0

     negative rho (up, down):  3.775E-03 0.000E+00

     total cpu time spent up to now is     2752.4 secs

     total energy              =    -473.81800528 Ry
     Harris-Foulkes estimate   =    -473.81823180 Ry
     estimated scf accuracy    <       0.00072659 Ry

     iteration #  3     ecut=    30.00 Ry     beta= 0.70
     Davidson diagonalization with overlap
     ethr =  7.13E-08,  avg # of iterations =  5.0

     negative rho (up, down):  3.775E-03 0.000E+00

     total cpu time spent up to now is     2867.6 secs

     total energy              =    -473.81803763 Ry
     Harris-Foulkes estimate   =    -473.81821338 Ry
     estimated scf accuracy    <       0.00181276 Ry

     iteration #  4     ecut=    30.00 Ry     beta= 0.70
     Davidson diagonalization with overlap
     ethr =  7.13E-08,  avg # of iterations =  2.0

     negative rho (up, down):  3.775E-03 0.000E+00

     total cpu time spent up to now is     2960.8 secs

     total energy              =    -473.81810330 Ry
     Harris-Foulkes estimate   =    -473.81816636 Ry
     estimated scf accuracy    <       0.00061626 Ry

     iteration #  5     ecut=    30.00 Ry     beta= 0.70
     Davidson diagonalization with overlap
     ethr =  7.13E-08,  avg # of iterations =  2.5

     negative rho (up, down):  3.775E-03 0.000E+00

     total cpu time spent up to now is     3052.8 secs

     total energy              =    -473.81813148 Ry
     Harris-Foulkes estimate   =    -473.81813714 Ry
     estimated scf accuracy    <       0.00002534 Ry

     iteration #  6     ecut=    30.00 Ry     beta= 0.70
     Davidson diagonalization with overlap
     ethr =  1.44E-08,  avg # of iterations =  2.7

     negative rho (up, down):  3.776E-03 0.000E+00

     total cpu time spent up to now is     3145.5 secs

     total energy              =    -473.81813008 Ry
     Harris-Foulkes estimate   =    -473.81814220 Ry
     estimated scf accuracy    <       0.00016282 Ry

     iteration #  7     ecut=    30.00 Ry     beta= 0.70
     Davidson diagonalization with overlap
     ethr =  1.44E-08,  avg # of iterations =  1.0

     negative rho (up, down):  3.776E-03 0.000E+00

     total cpu time spent up to now is     3231.0 secs

     total energy              =    -473.81813591 Ry
     Harris-Foulkes estimate   =    -473.81813631 Ry
     estimated scf accuracy    <       0.00000106 Ry

     iteration #  8     ecut=    30.00 Ry     beta= 0.70
     Davidson diagonalization with overlap
     ethr =  6.01E-10,  avg # of iterations =  3.3

     negative rho (up, down):  3.776E-03 0.000E+00

     total cpu time spent up to now is     3338.5 secs

     total energy              =    -473.81813602 Ry
     Harris-Foulkes estimate   =    -473.81813657 Ry
     estimated scf accuracy    <       0.00000259 Ry

     iteration #  9     ecut=    30.00 Ry     beta= 0.70
     Davidson diagonalization with overlap
     ethr =  6.01E-10,  avg # of iterations =  2.0

     negative rho (up, down):  3.776E-03 0.000E+00

     total cpu time spent up to now is     3428.3 secs

     total energy              =    -473.81813628 Ry
     Harris-Foulkes estimate   =    -473.81813632 Ry
     estimated scf accuracy    <       0.00000014 Ry

     iteration # 10     ecut=    30.00 Ry     beta= 0.70
     Davidson diagonalization with overlap
     ethr =  7.73E-11,  avg # of iterations =  3.0

     negative rho (up, down):  3.776E-03 0.000E+00

     total cpu time spent up to now is     3528.7 secs

     End of self-consistent calculation

          k = 0.0000 0.0000 0.0000 ( 52087 PWs)   bands (ev):

   -12.9681 -12.4789 -12.4495 -11.6157 -11.3260 -11.3007 -11.2884 -11.2165
   -11.1990 -10.9517 -10.7932 -10.7788 -10.7689 -10.7408 -10.4230  -9.8636
    -9.8532  -9.7721  -9.5094  -9.3564  -9.2772  -9.2015  -9.0307  -8.7650
    -8.7259  -8.3258  -8.0719  -8.0574  -7.9156  -7.9112  -7.9029  -7.8723
    -7.8033  -7.4035  -7.3857  -7.3755  -7.0595  -6.4344  -6.3985  -6.3983
    -6.2696  -6.2578  -6.2387  -5.5217  -5.1471  -4.9089  -4.8076  -4.7850
    -4.7739  -4.7047  -4.6386  -4.6279  -4.5874  -4.5868  -4.5853  -4.5549
    -4.5178  -4.4747  -4.4650  -4.1468  -4.1200  -4.1160  -4.0837  -4.0707
    -3.9999  -3.9470  -3.8139  -3.7938  -3.3507  -3.2447  -3.1710  -3.1559
    -2.9117  -2.8730  -2.6998  -2.6287  -2.6233  -2.4717  -2.4328  -2.4265
    -2.4230  -2.3189  -2.3046  -2.3027  -2.2499  -2.0392  -2.0026  -1.9467
    -1.8975  -1.8629  -1.1873  -1.0819  -1.0658  -1.0055  -0.4539  -0.3082
    -0.1032   0.1825   0.1908   0.2360   0.2430   0.2648   0.3204   0.3837
     0.6492   0.7230

          k = 0.0000 0.5000 0.0000 ( 52005 PWs)   bands (ev):

   -12.8414 -12.3510 -12.3219 -11.9062 -11.5145 -11.4031 -11.3772 -11.1911
   -11.1086 -11.0913 -11.0376 -10.8167 -10.5547 -10.5380 -10.3181 -10.1495
    -9.8195  -9.7400  -9.7292  -9.6507  -9.6326  -9.0112  -8.8925  -8.8690
    -8.4523  -8.3173  -8.2955  -8.2730  -7.7949  -7.6689  -7.4893  -7.4430
    -7.4306  -7.1606  -7.1171  -7.0989  -7.0016  -6.2062  -6.1933  -5.9586
    -5.9313  -5.9311  -5.8449  -5.5771  -5.3768  -5.1722  -5.0359  -5.0335
    -4.9798  -4.9398  -4.9086  -4.8891  -4.8384  -4.8287  -4.6575  -4.5238
    -4.4499  -4.4378  -4.4336  -4.4067  -4.2442  -4.2399  -4.2266  -4.2019
    -3.8519  -3.7061  -3.6994  -3.6979  -3.6926  -3.6655  -3.5230  -3.5181
    -3.5114  -3.3573  -3.1952  -3.0491  -3.0357  -3.0348  -2.5838  -2.5324
    -2.4703  -2.3693  -2.3303  -2.3183  -2.3052  -1.9790  -1.9631  -1.9078
    -1.8345  -1.7926  -1.2718  -1.1638  -0.9770  -0.9068  -0.2182   0.3051
     0.3568   0.3744   0.4666   0.6075   0.6341   0.6583   0.8339   0.8477
     0.9388   1.0300

          k = 0.0000-1.0000 0.0000 ( 51922 PWs)   bands (ev):

   -12.4722 -12.4721 -11.9780 -11.9773 -11.9500 -11.9491 -11.2529 -11.2529
   -10.8231 -10.8216 -10.8065 -10.8048 -10.7921 -10.7918 -10.4204 -10.4203
   -10.0284 -10.0280  -9.3841  -9.3837  -9.3712  -9.3707  -9.3157  -9.3152
    -7.9085  -7.9065  -7.8951  -7.8931  -7.7816  -7.7815  -7.7610  -7.7610
    -7.0210  -7.0209  -6.2748  -6.2671  -6.2562  -6.2491  -6.0452  -6.0448
    -5.8017  -5.8015  -5.2413  -5.2392  -5.2326  -5.2309  -5.1774  -5.1772
    -5.1751  -5.1717  -5.1714  -5.1686  -4.8762  -4.8762  -4.7399  -4.7396
    -4.7357  -4.7345  -4.7141  -4.7133  -4.6223  -4.6216  -4.2873  -4.2869
    -4.0999  -4.0964  -4.0907  -4.0873  -4.0729  -4.0728  -3.5823  -3.5821
    -3.4426  -3.4389  -3.4335  -3.4296  -3.3878  -3.3878  -2.5108  -2.5104
    -2.1528  -2.1384  -2.0968  -2.0931  -2.0824  -2.0823  -2.0487  -2.0369
    -2.0038  -2.0035  -1.1677  -1.1504  -1.0804  -1.0630   0.0836   0.0837
     0.4979   0.4992   0.7819   0.7823   0.8913   0.8915   0.9746   0.9747
     1.1017   1.1029

          k =-0.5000 0.0000 0.0000 ( 51914 PWs)   bands (ev):

   -12.8401 -12.8398 -11.8792 -11.8783 -11.5074 -11.5070 -11.1705 -11.1700
   -11.1537 -11.1537 -10.8495 -10.8485 -10.2199 -10.2193 -10.1760 -10.1757
   -10.1139 -10.1129  -9.7706  -9.7704  -8.9524  -8.9514  -8.6687  -8.6680
    -8.4180  -8.4176  -8.3860  -8.3837  -7.9249  -7.9246  -7.8470  -7.8470
    -7.5851  -7.5840  -7.3789  -7.3788  -6.9181  -6.9160  -6.4170  -6.4166
    -6.3277  -6.3272  -5.4052  -5.4040  -5.2025  -5.2014  -5.0923  -5.0921
    -4.9901  -4.9884  -4.6424  -4.6423  -4.4949  -4.4945  -4.4101  -4.4091
    -4.3573  -4.3569  -4.0570  -4.0566  -4.0393  -4.0392  -4.0158  -4.0151
    -3.6340  -3.6328  -3.5443  -3.5432  -3.5002  -3.4999  -3.4572  -3.4571
    -3.2982  -3.2979  -3.0083  -3.0075  -2.5032  -2.4991  -2.4656  -2.4653
    -2.3791  -2.3783  -2.2577  -2.2576  -2.1288  -2.1228  -1.9405  -1.9389
    -1.7892  -1.7878  -1.5541  -1.5531  -0.3817  -0.3745  -0.1560  -0.1545
    -0.0446  -0.0338   0.0151   0.0156   0.4824   0.4825   0.4990   0.5007
     0.6027   0.6031

          k =-0.5000 0.5000 0.0000 ( 51960 PWs)   bands (ev):

   -12.7132 -12.7129 -11.7755 -11.7753 -11.7494 -11.7485 -11.4048 -11.4043
   -10.9118 -10.9114 -10.7804 -10.7798 -10.7275 -10.7264 -10.1032 -10.1027
   -10.0093 -10.0087  -9.6481  -9.6479  -9.2100  -9.2099  -8.9534  -8.9530
    -8.3341  -8.3333  -8.2703  -8.2699  -7.5956  -7.5947  -7.4590  -7.4589
    -7.4489  -7.4472  -7.1168  -7.1166  -6.8538  -6.8516  -5.9847  -5.9841
    -5.8490  -5.8487  -5.4531  -5.4522  -5.4287  -5.4280  -5.2627  -5.2617
    -5.0603  -5.0600  -4.9073  -4.9071  -4.6100  -4.6096  -4.4660  -4.4648
    -4.4159  -4.4154  -4.3331  -4.3329  -4.1002  -4.0992  -4.0567  -4.0557
    -3.9568  -3.9562  -3.6595  -3.6588  -3.6465  -3.6461  -3.5057  -3.5049
    -3.3920  -3.3912  -3.2692  -3.2685  -3.2071  -3.2069  -2.9731  -2.9729
    -2.4112  -2.4067  -2.3630  -2.3619  -2.0798  -2.0741  -1.9444  -1.9437
    -1.7210  -1.7194  -1.4960  -1.4950  -0.1987  -0.1929  -0.1661  -0.1584
     0.2820   0.2838   0.7610   0.7611   0.8608   0.8611   0.9528   0.9538
     1.0330   1.0344

          k =-0.5000-1.0000 0.0000 ( 52096 PWs)   bands (ev):

   -12.3432 -12.3432 -12.3429 -12.3428 -11.3698 -11.3695 -11.3685 -11.3681
   -11.1380 -11.1380 -11.1375 -11.1373 -10.3906 -10.3904 -10.3889 -10.3885
    -9.7628  -9.7627  -9.7623  -9.7619  -9.3057  -9.3055  -9.3055  -9.3052
    -7.8532  -7.8532  -7.8530  -7.8526  -7.7855  -7.7851  -7.7832  -7.7831
    -6.8351  -6.8339  -6.8277  -6.8269  -6.0274  -6.0269  -6.0259  -6.0257
    -5.6805  -5.6802  -5.6793  -5.6791  -5.1441  -5.1437  -5.1430  -5.1427
    -5.0777  -5.0777  -5.0745  -5.0744  -4.7002  -4.7001  -4.6999  -4.6995
    -4.6609  -4.6600  -4.6596  -4.6590  -4.4044  -4.4038  -4.4017  -4.4014
    -4.2250  -4.2250  -4.2227  -4.2223  -3.8678  -3.8677  -3.8645  -3.8644
    -3.3258  -3.3258  -3.3244  -3.3240  -3.2298  -3.2296  -3.2289  -3.2289
    -2.1807  -2.1748  -2.1666  -2.1629  -2.0269  -2.0259  -2.0237  -2.0212
    -1.7086  -1.7084  -1.7082  -1.7075  -0.1912  -0.1897  -0.1764  -0.1726
     0.8793   0.8799   0.8808   0.8809   1.0922   1.0924   1.0933   1.0935
     1.1548   1.1550

     the Fermi energy is    -1.9041 ev

!    total energy              =    -473.81813624 Ry
     Harris-Foulkes estimate   =    -473.81813632 Ry
     estimated scf accuracy    <       0.00000009 Ry

     The total energy is the sum of the following terms:

     one-electron contribution =   -2915.64833017 Ry
     hartree contribution      =    1489.08466620 Ry
     xc contribution           =    -254.95173572 Ry
     ewald contribution        =    1207.70141987 Ry
     smearing contrib. (-TS)   =      -0.00415641 Ry

     convergence has been achieved in  10 iterations

     negative rho (up, down):  3.776E-03 0.000E+00

     Forces acting on atoms (cartesian axes, Ry/au):

     atom    1 type  2   force =     0.00031542   -0.02385561    0.00760598
     atom    2 type  2   force =     0.00031547    0.02385561    0.00760600
     atom    3 type  2   force =    -0.00029888   -0.02385217    0.00759639
     atom    4 type  2   force =    -0.00029885    0.02385217    0.00759635
     atom    5 type  2   force =    -0.00026234   -0.02385505    0.00760866
     atom    6 type  2   force =    -0.00026229    0.02385503    0.00760865
     atom    7 type  2   force =     0.00026743   -0.02385083    0.00761012
     atom    8 type  2   force =     0.00026745    0.02385084    0.00761012
     atom    9 type  2   force =    -0.00025462   -0.02385215    0.00759659
     atom   10 type  2   force =    -0.00025465    0.02385216    0.00759662
     atom   11 type  2   force =     0.00026924   -0.02385158    0.00759338
     atom   12 type  2   force =     0.00026920    0.02385158    0.00759333
     atom   13 type  2   force =     0.00031894   -0.02385126    0.00760879
     atom   14 type  2   force =     0.00031895    0.02385127    0.00760882
     atom   15 type  2   force =    -0.00028341   -0.02385654    0.00761222
     atom   16 type  2   force =    -0.00028344    0.02385653    0.00761223
     atom   17 type  1   force =    -0.00081245    0.00000002   -0.00176672
     atom   18 type  1   force =     0.00079436   -0.00000000   -0.00174156
     atom   19 type  1   force =    -0.00066458    0.00000002   -0.00176865
     atom   20 type  1   force =     0.00064355    0.00000002   -0.00174415
     atom   21 type  1   force =    -0.00080427    0.00000003   -0.00172999
     atom   22 type  1   force =     0.00076640   -0.00000004   -0.00175701
     atom   23 type  1   force =    -0.00064005    0.00000002   -0.00174152
     atom   24 type  1   force =     0.00062854    0.00000009   -0.00174912
     atom   25 type  1   force =    -0.00002066    0.00000009   -0.00964513
     atom   26 type  1   force =     0.00001109    0.00000004   -0.00968045
     atom   27 type  1   force =    -0.00001912   -0.00000001   -0.00973517
     atom   28 type  1   force =     0.00001528   -0.00000001   -0.00964381
     atom   29 type  1   force =     0.00015700   -0.00000000   -0.00965408
     atom   30 type  1   force =     0.00007327    0.00000001   -0.00968373
     atom   31 type  1   force =     0.00002885   -0.00000001   -0.00975589
     atom   32 type  1   force =     0.00006769   -0.00000001   -0.00964008
     atom   33 type  1   force =    -0.00004947   -0.00016995    0.00006897
     atom   34 type  1   force =     0.00003992    0.00014812   -0.00000200
     atom   35 type  1   force =     0.00001450   -0.00013212   -0.00114787
     atom   36 type  1   force =     0.00001450    0.00013215   -0.00114785
     atom   37 type  1   force =    -0.00005043   -0.00005298   -0.00125046
     atom   38 type  1   force =    -0.00005041    0.00005300   -0.00125036
     atom   39 type  1   force =     0.00003985   -0.00014821   -0.00000209
     atom   40 type  1   force =    -0.00004956    0.00016984    0.00006887
     atom   41 type  1   force =     0.00292324   -0.00006433    0.00115484
     atom   42 type  1   force =     0.00268413   -0.00001496    0.00110098
     atom   43 type  1   force =    -0.00259410   -0.00002754    0.00112250
     atom   44 type  1   force =    -0.00259409    0.00002763    0.00112276
     atom   45 type  1   force =    -0.00267315    0.00003387    0.00107651
     atom   46 type  1   force =    -0.00267320   -0.00003398    0.00107643
     atom   47 type  1   force =     0.00268422    0.00001497    0.00110103
     atom   48 type  1   force =     0.00292330    0.00006435    0.00115490
     atom   49 type  1   force =     0.00479553    0.00000000   -0.00417437
     atom   50 type  1   force =    -0.00508619   -0.00000001   -0.00410737
     atom   51 type  1   force =     0.00747071    0.00000003   -0.00430638
     atom   52 type  1   force =    -0.00674720   -0.00000001   -0.00444013
     atom   53 type  1   force =     0.00562988   -0.00000016   -0.00436706
     atom   54 type  1   force =    -0.00539006   -0.00000002   -0.00423549
     atom   55 type  1   force =     0.00648568    0.00000004   -0.00431032
     atom   56 type  1   force =    -0.00811612    0.00000001   -0.00453320

     Total force =     0.023296     Total SCF correction =     0.000292

     number of scf cycles    =   2
     number of bfgs steps    =   1

     energy   old            =    -473.8175860585 Ry
     energy   new            =    -473.8181362417 Ry

     CASE: energy  _new < energy  _old


     WARNING: bfgs curvature condition failed, Theta= 0.832
     new trust radius        =       0.0097278647 bohr
     new conv_thr            =       0.0000000110 Ry


ATOMIC_POSITIONS (alat)
H        0.000000000  -0.067550000  -0.067550000    0   0   0
H        0.000000000   0.067550000  -0.067550000    0   0   0
H        0.250000000  -0.067550000  -0.067550000    0   0   0
H        0.250000000   0.067550000  -0.067550000    0   0   0
H        0.250000000   0.182450000  -0.067550000    0   0   0
H        0.250000000   0.317550000  -0.067550000    0   0   0
H        0.500000000   0.182450000  -0.067550000    0   0   0
H        0.500000000   0.317550000  -0.067550000    0   0   0
H        0.750000000   0.182450000  -0.067550000    0   0   0
H        0.750000000   0.317550000  -0.067550000    0   0   0
H        0.000000000   0.182450000  -0.067550000    0   0   0
H        0.000000000   0.317550000  -0.067550000    0   0   0
H        0.500000000  -0.067550000  -0.067550000    0   0   0
H        0.500000000   0.067550000  -0.067550000    0   0   0
H        0.750000000  -0.067550000  -0.067550000    0   0   0
H        0.750000000   0.067550000  -0.067550000    0   0   0
Si       0.000000000   0.000000000   0.000000000    0   0   0
Si       0.250000000   0.000000000   0.000000000    0   0   0
Si       0.000000000   0.250000000   0.000000000    0   0   0
Si       0.250000000   0.250000000   0.000000000    0   0   0
Si       0.500000000   0.000000000   0.000000000    0   0   0
Si       0.750000000   0.000000000   0.000000000    0   0   0
Si       0.500000000   0.250000000   0.000000000    0   0   0
Si       0.750000000   0.250000000   0.000000000    0   0   0
Si       0.125000000   0.000000000   0.088388348    0   0   0
Si       0.375000000   0.000000000   0.088388348    0   0   0
Si       0.125000000   0.250000000   0.088388348    0   0   0
Si       0.375000000   0.250000000   0.088388348    0   0   0
Si       0.625000000   0.000000000   0.088388348    0   0   0
Si       0.875000000   0.000000000   0.088388348    0   0   0
Si       0.625000000   0.250000000   0.088388348    0   0   0
Si       0.875000000   0.250000000   0.088388348    0   0   0
Si       0.624993503   0.374986167   0.176728526
Si       0.125002835   0.125011852   0.176723918
Si       0.375000358   0.124988080   0.176683982
Si       0.375000368   0.375011918   0.176683979
Si       0.874993726   0.124995444   0.176677332
Si       0.874993727   0.375004561   0.176677305
Si       0.125002832   0.374988147   0.176723916
Si       0.624993511   0.125013828   0.176728548
Si       0.750221225   0.374995787   0.265314446
Si       0.250200813   0.124999664   0.265309256
Si       0.499806202   0.124997907   0.265311786
Si       0.499806203   0.375002081   0.265311767
Si      -0.000198825   0.125001329   0.265307734
Si      -0.000198822   0.374998665   0.265307721
Si       0.250200797   0.375000338   0.265309241
Si       0.750221226   0.125004213   0.265314447
Si       0.001298686  -0.000000007   0.353213041
Si       0.248680889   0.000000005   0.353217226
Si       0.002476754   0.249999995   0.353205379
Si       0.247571966   0.249999993   0.353194684
Si       0.502356184   0.000000012   0.353198157
Si       0.748660695   0.000000022   0.353207836
Si       0.501411032   0.249999997   0.353202562
Si       0.746480197   0.249999999   0.353188469



     Writing output data file si.save/
     NEW-OLD atomic charge density approx. for the potential

     Check: negative core charge=   -0.000002

     negative rho (up, down):  3.774E-03 0.000E+00

     total cpu time spent up to now is     3549.5 secs

     Self-consistent Calculation

     iteration #  1     ecut=    30.00 Ry     beta= 0.70
     Davidson diagonalization with overlap
     ethr =  1.00E-06,  avg # of iterations =  3.0

     Threshold (ethr) on eigenvalues was too large:
     Diagonalizing with lowered threshold

     Davidson diagonalization with overlap
     ethr =  7.92E-08,  avg # of iterations =  1.7

     negative rho (up, down):  3.776E-03 0.000E+00

     total cpu time spent up to now is     3750.3 secs

     total energy              =    -473.81865409 Ry
     Harris-Foulkes estimate   =    -473.81874396 Ry
     estimated scf accuracy    <       0.00014267 Ry

     iteration #  2     ecut=    30.00 Ry     beta= 0.70
     Davidson diagonalization with overlap
     ethr =  8.11E-08,  avg # of iterations =  3.3

     negative rho (up, down):  3.776E-03 0.000E+00

     total cpu time spent up to now is     3861.3 secs

     total energy              =    -473.81852751 Ry
     Harris-Foulkes estimate   =    -473.81883113 Ry
     estimated scf accuracy    <       0.00113961 Ry

     iteration #  3     ecut=    30.00 Ry     beta= 0.70
     Davidson diagonalization with overlap
     ethr =  8.11E-08,  avg # of iterations =  3.8

     negative rho (up, down):  3.776E-03 0.000E+00

     total cpu time spent up to now is     3971.5 secs

     total energy              =    -473.81847691 Ry
     Harris-Foulkes estimate   =    -473.81893936 Ry
     estimated scf accuracy    <       0.00632842 Ry

     iteration #  4     ecut=    30.00 Ry     beta= 0.70
     Davidson diagonalization with overlap
     ethr =  8.11E-08,  avg # of iterations =  2.5

     negative rho (up, down):  3.776E-03 0.000E+00

     total cpu time spent up to now is     4067.7 secs

     total energy              =    -473.81869508 Ry
     Harris-Foulkes estimate   =    -473.81873887 Ry
     estimated scf accuracy    <       0.00025507 Ry

     iteration #  5     ecut=    30.00 Ry     beta= 0.70
     Davidson diagonalization with overlap
     ethr =  8.11E-08,  avg # of iterations =  2.7

     negative rho (up, down):  3.776E-03 0.000E+00

     total cpu time spent up to now is     4159.4 secs

     total energy              =    -473.81871351 Ry
     Harris-Foulkes estimate   =    -473.81871941 Ry
     estimated scf accuracy    <       0.00002620 Ry

     iteration #  6     ecut=    30.00 Ry     beta= 0.70
     Davidson diagonalization with overlap
     ethr =  1.49E-08,  avg # of iterations =  3.0

     negative rho (up, down):  3.776E-03 0.000E+00

     total cpu time spent up to now is     4251.2 secs

     total energy              =    -473.81871242 Ry
     Harris-Foulkes estimate   =    -473.81872417 Ry
     estimated scf accuracy    <       0.00015080 Ry

     iteration #  7     ecut=    30.00 Ry     beta= 0.70
     Davidson diagonalization with overlap
     ethr =  1.49E-08,  avg # of iterations =  1.0

     negative rho (up, down):  3.776E-03 0.000E+00

     total cpu time spent up to now is     4336.6 secs

     total energy              =    -473.81871802 Ry
     Harris-Foulkes estimate   =    -473.81871859 Ry
     estimated scf accuracy    <       0.00000160 Ry

     iteration #  8     ecut=    30.00 Ry     beta= 0.70
     Davidson diagonalization with overlap
     ethr =  9.08E-10,  avg # of iterations =  3.2

     negative rho (up, down):  3.777E-03 0.000E+00

     total cpu time spent up to now is     4439.0 secs

     total energy              =    -473.81871823 Ry
     Harris-Foulkes estimate   =    -473.81871882 Ry
     estimated scf accuracy    <       0.00000275 Ry

     iteration #  9     ecut=    30.00 Ry     beta= 0.70
     Davidson diagonalization with overlap
     ethr =  9.08E-10,  avg # of iterations =  2.0

     negative rho (up, down):  3.777E-03 0.000E+00

     total cpu time spent up to now is     4527.8 secs

     total energy              =    -473.81871850 Ry
     Harris-Foulkes estimate   =    -473.81871855 Ry
     estimated scf accuracy    <       0.00000017 Ry

     iteration # 10     ecut=    30.00 Ry     beta= 0.70
     Davidson diagonalization with overlap
     ethr =  9.49E-11,  avg # of iterations =  3.0

     negative rho (up, down):  3.777E-03 0.000E+00

     total cpu time spent up to now is     4627.1 secs

     total energy              =    -473.81871851 Ry
     Harris-Foulkes estimate   =    -473.81871856 Ry
     estimated scf accuracy    <       0.00000017 Ry

     iteration # 11     ecut=    30.00 Ry     beta= 0.70
     Davidson diagonalization with overlap
     ethr =  9.45E-11,  avg # of iterations =  2.0

     negative rho (up, down):  3.777E-03 0.000E+00

     total cpu time spent up to now is     4717.3 secs

     total energy              =    -473.81871853 Ry
     Harris-Foulkes estimate   =    -473.81871854 Ry
     estimated scf accuracy    <       0.00000002 Ry

     iteration # 12     ecut=    30.00 Ry     beta= 0.70
     Davidson diagonalization with overlap
     ethr =  1.38E-11,  avg # of iterations =  3.0

     negative rho (up, down):  3.777E-03 0.000E+00

     total cpu time spent up to now is     4818.1 secs

     End of self-consistent calculation

          k = 0.0000 0.0000 0.0000 ( 52087 PWs)   bands (ev):

   -12.9690 -12.4804 -12.4501 -11.6185 -11.3264 -11.3010 -11.2882 -11.2202
   -11.2018 -10.9577 -10.7944 -10.7782 -10.7678 -10.7418 -10.4234  -9.8660
    -9.8546  -9.7740  -9.5094  -9.3555  -9.2780  -9.2052  -9.0362  -8.7721
    -8.7295  -8.3322  -8.0735  -8.0576  -7.9220  -7.9117  -7.9070  -7.8776
    -7.8021  -7.4010  -7.3828  -7.3742  -7.0566  -6.4352  -6.3985  -6.3982
    -6.2694  -6.2538  -6.2386  -5.5197  -5.1470  -4.9094  -4.8078  -4.7852
    -4.7720  -4.7065  -4.6367  -4.6250  -4.5868  -4.5861  -4.5849  -4.5548
    -4.5162  -4.4747  -4.4641  -4.1487  -4.1211  -4.1185  -4.0824  -4.0712
    -4.0014  -3.9460  -3.8163  -3.7948  -3.3551  -3.2445  -3.1755  -3.1601
    -2.9132  -2.8695  -2.7000  -2.6412  -2.6233  -2.4725  -2.4284  -2.4260
    -2.4199  -2.3271  -2.3091  -2.3042  -2.2564  -2.0378  -2.0028  -1.9384
    -1.8927  -1.8573  -1.1949  -1.0830  -1.0607  -1.0001  -0.4551  -0.3084
    -0.1036   0.1806   0.1889   0.2369   0.2397   0.2621   0.3206   0.3813
     0.6477   0.7182

          k = 0.0000 0.5000 0.0000 ( 52005 PWs)   bands (ev):

   -12.8423 -12.3525 -12.3225 -11.9065 -11.5170 -11.4038 -11.3775 -11.1915
   -11.1122 -11.0940 -11.0383 -10.8226 -10.5557 -10.5391 -10.3185 -10.1497
    -9.8229  -9.7425  -9.7306  -9.6527  -9.6345  -9.0155  -8.8976  -8.8719
    -8.4517  -8.3194  -8.2960  -8.2744  -7.7937  -7.6722  -7.4873  -7.4405
    -7.4294  -7.1642  -7.1222  -7.1012  -6.9986  -6.2061  -6.1892  -5.9584
    -5.9312  -5.9312  -5.8462  -5.5758  -5.3783  -5.1734  -5.0357  -5.0328
    -4.9794  -4.9395  -4.9090  -4.8888  -4.8397  -4.8282  -4.6609  -4.5253
    -4.4497  -4.4382  -4.4335  -4.4087  -4.2440  -4.2389  -4.2298  -4.2044
    -3.8507  -3.7064  -3.7006  -3.6987  -3.6945  -3.6655  -3.5238  -3.5193
    -3.5120  -3.3676  -3.1933  -3.0565  -3.0420  -3.0407  -2.5836  -2.5314
    -2.4693  -2.3695  -2.3251  -2.3149  -2.3042  -1.9778  -1.9635  -1.8998
    -1.8295  -1.7884  -1.2781  -1.1590  -0.9772  -0.9019  -0.2168   0.3048
     0.3584   0.3746   0.4658   0.6065   0.6323   0.6585   0.8324   0.8471
     0.9420   1.0285

          k = 0.0000-1.0000 0.0000 ( 51922 PWs)   bands (ev):

   -12.4729 -12.4728 -11.9794 -11.9784 -11.9506 -11.9494 -11.2549 -11.2548
   -10.8259 -10.8243 -10.8088 -10.8069 -10.7925 -10.7922 -10.4258 -10.4258
   -10.0290 -10.0285  -9.3872  -9.3866  -9.3730  -9.3724  -9.3182  -9.3177
    -7.9069  -7.9054  -7.8949  -7.8936  -7.7814  -7.7813  -7.7607  -7.7606
    -7.0192  -7.0192  -6.2773  -6.2690  -6.2543  -6.2466  -6.0476  -6.0471
    -5.8030  -5.8027  -5.2414  -5.2390  -5.2330  -5.2311  -5.1800  -5.1797
    -5.1785  -5.1752  -5.1743  -5.1718  -4.8782  -4.8782  -4.7420  -4.7417
    -4.7365  -4.7352  -4.7130  -4.7122  -4.6225  -4.6218  -4.2875  -4.2871
    -4.1013  -4.0974  -4.0917  -4.0880  -4.0775  -4.0773  -3.5809  -3.5807
    -3.4453  -3.4410  -3.4363  -3.4319  -3.3902  -3.3901  -2.5102  -2.5097
    -2.1560  -2.1398  -2.0975  -2.0878  -2.0816  -2.0756  -2.0424  -2.0295
    -1.9994  -1.9993  -1.1713  -1.1528  -1.0764  -1.0574   0.0855   0.0855
     0.4975   0.4991   0.7830   0.7833   0.8933   0.8935   0.9751   0.9753
     1.1029   1.1043

          k =-0.5000 0.0000 0.0000 ( 51914 PWs)   bands (ev):

   -12.8411 -12.8408 -11.8804 -11.8796 -11.5103 -11.5099 -11.1708 -11.1703
   -11.1535 -11.1535 -10.8541 -10.8532 -10.2206 -10.2200 -10.1763 -10.1760
   -10.1141 -10.1134  -9.7725  -9.7723  -8.9581  -8.9569  -8.6700  -8.6693
    -8.4215  -8.4210  -8.3912  -8.3890  -7.9254  -7.9251  -7.8525  -7.8524
    -7.5839  -7.5826  -7.3765  -7.3765  -6.9154  -6.9130  -6.4176  -6.4172
    -6.3275  -6.3270  -5.4039  -5.4025  -5.2006  -5.1994  -5.0921  -5.0920
    -4.9897  -4.9878  -4.6425  -4.6424  -4.4933  -4.4930  -4.4121  -4.4109
    -4.3581  -4.3576  -4.0589  -4.0585  -4.0378  -4.0375  -4.0175  -4.0168
    -3.6306  -3.6294  -3.5444  -3.5433  -3.5002  -3.5000  -3.4581  -3.4579
    -3.3026  -3.3022  -3.0122  -3.0115  -2.5018  -2.4973  -2.4744  -2.4742
    -2.3769  -2.3761  -2.2643  -2.2642  -2.1253  -2.1188  -1.9410  -1.9393
    -1.7852  -1.7837  -1.5502  -1.5490  -0.3830  -0.3755  -0.1575  -0.1558
    -0.0461  -0.0348   0.0136   0.0140   0.4815   0.4816   0.4954   0.4971
     0.6025   0.6031

          k =-0.5000 0.5000 0.0000 ( 51960 PWs)   bands (ev):

   -12.7141 -12.7138 -11.7760 -11.7757 -11.7505 -11.7498 -11.4075 -11.4070
   -10.9125 -10.9122 -10.7811 -10.7806 -10.7319 -10.7309 -10.1041 -10.1035
   -10.0110 -10.0105  -9.6501  -9.6500  -9.2126  -9.2125  -8.9578  -8.9572
    -8.3354  -8.3347  -8.2716  -8.2712  -7.5944  -7.5933  -7.4574  -7.4570
    -7.4515  -7.4496  -7.1205  -7.1203  -6.8510  -6.8485  -5.9845  -5.9839
    -5.8500  -5.8497  -5.4526  -5.4515  -5.4297  -5.4289  -5.2614  -5.2604
    -5.0609  -5.0605  -4.9070  -4.9069  -4.6118  -4.6115  -4.4665  -4.4652
    -4.4170  -4.4164  -4.3350  -4.3347  -4.1017  -4.1006  -4.0556  -4.0544
    -3.9585  -3.9580  -3.6589  -3.6582  -3.6486  -3.6482  -3.5061  -3.5051
    -3.3922  -3.3915  -3.2687  -3.2679  -3.2145  -3.2144  -2.9791  -2.9790
    -2.4111  -2.4064  -2.3586  -2.3574  -2.0767  -2.0706  -1.9441  -1.9434
    -1.7173  -1.7155  -1.4923  -1.4911  -0.1983  -0.1925  -0.1671  -0.1591
     0.2811   0.2831   0.7591   0.7592   0.8611   0.8614   0.9556   0.9568
     1.0341   1.0355

          k =-0.5000-1.0000 0.0000 ( 52096 PWs)   bands (ev):

   -12.3440 -12.3439 -12.3437 -12.3436 -11.3707 -11.3705 -11.3696 -11.3692
   -11.1401 -11.1401 -11.1397 -11.1394 -10.3942 -10.3940 -10.3926 -10.3921
    -9.7642  -9.7640  -9.7637  -9.7633  -9.3082  -9.3080  -9.3079  -9.3076
    -7.8530  -7.8530  -7.8529  -7.8525  -7.7849  -7.7846  -7.7825  -7.7825
    -6.8336  -6.8322  -6.8259  -6.8250  -6.0296  -6.0291  -6.0281  -6.0279
    -5.6820  -5.6817  -5.6808  -5.6805  -5.1465  -5.1461  -5.1454  -5.1451
    -5.0796  -5.0796  -5.0762  -5.0762  -4.7016  -4.7015  -4.7013  -4.7009
    -4.6601  -4.6591  -4.6588  -4.6581  -4.4051  -4.4044  -4.4023  -4.4020
    -4.2264  -4.2264  -4.2240  -4.2235  -3.8712  -3.8712  -3.8679  -3.8678
    -3.3255  -3.3253  -3.3239  -3.3236  -3.2317  -3.2314  -3.2308  -3.2308
    -2.1795  -2.1727  -2.1652  -2.1603  -2.0232  -2.0217  -2.0199  -2.0165
    -1.7062  -1.7059  -1.7058  -1.7051  -0.1913  -0.1900  -0.1763  -0.1721
     0.8811   0.8817   0.8827   0.8827   1.0943   1.0945   1.0954   1.0956
     1.1561   1.1564

     the Fermi energy is    -1.9009 ev

!    total energy              =    -473.81871853 Ry
     Harris-Foulkes estimate   =    -473.81871854 Ry
     estimated scf accuracy    <          8.0E-09 Ry

     The total energy is the sum of the following terms:

     one-electron contribution =   -2916.35596965 Ry
     hartree contribution      =    1489.43922307 Ry
     xc contribution           =    -254.95919794 Ry
     ewald contribution        =    1208.06125608 Ry
     smearing contrib. (-TS)   =      -0.00403009 Ry

     convergence has been achieved in  12 iterations

     negative rho (up, down):  3.777E-03 0.000E+00

     Forces acting on atoms (cartesian axes, Ry/au):

     atom    1 type  2   force =     0.00036156   -0.02385089    0.00761575
     atom    2 type  2   force =     0.00036156    0.02385087    0.00761572
     atom    3 type  2   force =    -0.00034441   -0.02384746    0.00760469
     atom    4 type  2   force =    -0.00034444    0.02384748    0.00760471
     atom    5 type  2   force =    -0.00030490   -0.02384950    0.00761677
     atom    6 type  2   force =    -0.00030489    0.02384949    0.00761677
     atom    7 type  2   force =     0.00031158   -0.02384563    0.00761716
     atom    8 type  2   force =     0.00031158    0.02384563    0.00761716
     atom    9 type  2   force =    -0.00029656   -0.02384644    0.00760368
     atom   10 type  2   force =    -0.00029655    0.02384643    0.00760369
     atom   11 type  2   force =     0.00031423   -0.02384552    0.00760184
     atom   12 type  2   force =     0.00031421    0.02384552    0.00760184
     atom   13 type  2   force =     0.00036446   -0.02384714    0.00761688
     atom   14 type  2   force =     0.00036447    0.02384713    0.00761690
     atom   15 type  2   force =    -0.00032607   -0.02385180    0.00762008
     atom   16 type  2   force =    -0.00032609    0.02385180    0.00762008
     atom   17 type  1   force =    -0.00092954    0.00000000   -0.00179383
     atom   18 type  1   force =     0.00090981   -0.00000000   -0.00176680
     atom   19 type  1   force =    -0.00077583   -0.00000003   -0.00179817
     atom   20 type  1   force =     0.00074935    0.00000002   -0.00177129
     atom   21 type  1   force =    -0.00092074    0.00000000   -0.00175874
     atom   22 type  1   force =     0.00088430    0.00000001   -0.00178868
     atom   23 type  1   force =    -0.00074964   -0.00000004   -0.00177384
     atom   24 type  1   force =     0.00074130    0.00000002   -0.00178177
     atom   25 type  1   force =    -0.00002776   -0.00000002   -0.00967235
     atom   26 type  1   force =     0.00000799   -0.00000000   -0.00987290
     atom   27 type  1   force =    -0.00001651   -0.00000002   -0.00981748
     atom   28 type  1   force =     0.00002329   -0.00000002   -0.00979857
     atom   29 type  1   force =     0.00017840    0.00000004   -0.00966600
     atom   30 type  1   force =     0.00007187    0.00000007   -0.00988101
     atom   31 type  1   force =     0.00003018   -0.00000004   -0.00983111
     atom   32 type  1   force =     0.00007119   -0.00000004   -0.00982409
     atom   33 type  1   force =    -0.00000016   -0.00014465    0.00090118
     atom   34 type  1   force =     0.00003679    0.00013207    0.00082869
     atom   35 type  1   force =     0.00002164   -0.00009177   -0.00101600
     atom   36 type  1   force =     0.00002156    0.00009178   -0.00101602
     atom   37 type  1   force =     0.00000163   -0.00003224   -0.00112389
     atom   38 type  1   force =     0.00000167    0.00003223   -0.00112374
     atom   39 type  1   force =     0.00003674   -0.00013209    0.00082863
     atom   40 type  1   force =    -0.00000020    0.00014471    0.00090109
     atom   41 type  1   force =     0.00274785   -0.00002579    0.00007659
     atom   42 type  1   force =     0.00255406   -0.00003443    0.00003381
     atom   43 type  1   force =    -0.00247909   -0.00002183    0.00004693
     atom   44 type  1   force =    -0.00247909    0.00002191    0.00004707
     atom   45 type  1   force =    -0.00256572    0.00000176    0.00000890
     atom   46 type  1   force =    -0.00256578   -0.00000180    0.00000894
     atom   47 type  1   force =     0.00255416    0.00003438    0.00003393
     atom   48 type  1   force =     0.00274785    0.00002594    0.00007655
     atom   49 type  1   force =     0.00561779   -0.00000000   -0.00344507
     atom   50 type  1   force =    -0.00592841   -0.00000005   -0.00337302
     atom   51 type  1   force =     0.00854920    0.00000005   -0.00362190
     atom   52 type  1   force =    -0.00776279    0.00000010   -0.00373224
     atom   53 type  1   force =     0.00650179   -0.00000016   -0.00362916
     atom   54 type  1   force =    -0.00623928   -0.00000011   -0.00349086
     atom   55 type  1   force =     0.00746812    0.00000003   -0.00357629
     atom   56 type  1   force =    -0.00924771    0.00000002   -0.00384121

     Total force =     0.024229     Total SCF correction =     0.000104

     number of scf cycles    =   3
     number of bfgs steps    =   2

     energy   old            =    -473.8181362417 Ry
     energy   new            =    -473.8187185328 Ry

     CASE: energy  _new < energy  _old

     new trust radius        =       0.0145917970 bohr
     new conv_thr            =       0.0000000116 Ry


ATOMIC_POSITIONS (alat)
H        0.000000000  -0.067550000  -0.067550000    0   0   0
H        0.000000000   0.067550000  -0.067550000    0   0   0
H        0.250000000  -0.067550000  -0.067550000    0   0   0
H        0.250000000   0.067550000  -0.067550000    0   0   0
H        0.250000000   0.182450000  -0.067550000    0   0   0
H        0.250000000   0.317550000  -0.067550000    0   0   0
H        0.500000000   0.182450000  -0.067550000    0   0   0
H        0.500000000   0.317550000  -0.067550000    0   0   0
H        0.750000000   0.182450000  -0.067550000    0   0   0
H        0.750000000   0.317550000  -0.067550000    0   0   0
H        0.000000000   0.182450000  -0.067550000    0   0   0
H        0.000000000   0.317550000  -0.067550000    0   0   0
H        0.500000000  -0.067550000  -0.067550000    0   0   0
H        0.500000000   0.067550000  -0.067550000    0   0   0
H        0.750000000  -0.067550000  -0.067550000    0   0   0
H        0.750000000   0.067550000  -0.067550000    0   0   0
Si       0.000000000   0.000000000   0.000000000    0   0   0
Si       0.250000000   0.000000000   0.000000000    0   0   0
Si       0.000000000   0.250000000   0.000000000    0   0   0
Si       0.250000000   0.250000000   0.000000000    0   0   0
Si       0.500000000   0.000000000   0.000000000    0   0   0
Si       0.750000000   0.000000000   0.000000000    0   0   0
Si       0.500000000   0.250000000   0.000000000    0   0   0
Si       0.750000000   0.250000000   0.000000000    0   0   0
Si       0.125000000   0.000000000   0.088388348    0   0   0
Si       0.375000000   0.000000000   0.088388348    0   0   0
Si       0.125000000   0.250000000   0.088388348    0   0   0
Si       0.375000000   0.250000000   0.088388348    0   0   0
Si       0.625000000   0.000000000   0.088388348    0   0   0
Si       0.875000000   0.000000000   0.088388348    0   0   0
Si       0.625000000   0.250000000   0.088388348    0   0   0
Si       0.875000000   0.250000000   0.088388348    0   0   0
Si       0.624989396   0.374975983   0.176706894
Si       0.125004981   0.125020667   0.176698672
Si       0.375000786   0.124979635   0.176615176
Si       0.375000802   0.375020361   0.176615170
Si       0.874989802   0.124992270   0.176603270
Si       0.874989804   0.375007738   0.176603228
Si       0.125004976   0.374979332   0.176698669
Si       0.624989410   0.125024010   0.176706930
Si       0.750388375   0.374993006   0.265409696
Si       0.250353112   0.124999087   0.265400767
Si       0.499659063   0.124996379   0.265405051
Si       0.499659065   0.375003602   0.265405018
Si      -0.000349992   0.125002034   0.265398047
Si      -0.000349988   0.374997957   0.265398025
Si       0.250353086   0.375000915   0.265400743
Si       0.750388376   0.125006996   0.265409696
Si       0.001543472  -0.000000011   0.352963887
Si       0.248420070   0.000000008   0.352971416
Si       0.002863276   0.249999993   0.352949581
Si       0.247224078   0.249999989   0.352931046
Si       0.502646120   0.000000020   0.352937741
Si       0.748384087   0.000000036   0.352954943
Si       0.501745236   0.249999995   0.352945459
Si       0.746059533   0.249999999   0.352919797



     Writing output data file si.save/
     NEW-OLD atomic charge density approx. for the potential

     Check: negative core charge=   -0.000002

     negative rho (up, down):  3.774E-03 0.000E+00

     total cpu time spent up to now is     4838.9 secs

     Self-consistent Calculation

     iteration #  1     ecut=    30.00 Ry     beta= 0.70
     Davidson diagonalization with overlap
     ethr =  1.00E-06,  avg # of iterations =  3.8

     negative rho (up, down):  3.776E-03 0.000E+00

     total cpu time spent up to now is     4959.4 secs

     total energy              =    -473.81946646 Ry
     Harris-Foulkes estimate   =    -473.81963915 Ry
     estimated scf accuracy    <       0.00027957 Ry

     iteration #  2     ecut=    30.00 Ry     beta= 0.70
     Davidson diagonalization with overlap
     ethr =  1.59E-07,  avg # of iterations =  3.3

     negative rho (up, down):  3.776E-03 0.000E+00

     total cpu time spent up to now is     5070.5 secs

     total energy              =    -473.81931765 Ry
     Harris-Foulkes estimate   =    -473.81976395 Ry
     estimated scf accuracy    <       0.00138908 Ry

     iteration #  3     ecut=    30.00 Ry     beta= 0.70
     Davidson diagonalization with overlap
     ethr =  1.59E-07,  avg # of iterations =  4.0

     negative rho (up, down):  3.777E-03 0.000E+00

     total cpu time spent up to now is     5180.8 secs

     total energy              =    -473.81925277 Ry
     Harris-Foulkes estimate   =    -473.81989641 Ry
     estimated scf accuracy    <       0.00791634 Ry

     iteration #  4     ecut=    30.00 Ry     beta= 0.70
     Davidson diagonalization with overlap
     ethr =  1.59E-07,  avg # of iterations =  2.2

     negative rho (up, down):  3.777E-03 0.000E+00

     total cpu time spent up to now is     5275.5 secs

     total energy              =    -473.81954752 Ry
     Harris-Foulkes estimate   =    -473.81962644 Ry
     estimated scf accuracy    <       0.00049135 Ry

     iteration #  5     ecut=    30.00 Ry     beta= 0.70
     Davidson diagonalization with overlap
     ethr =  1.59E-07,  avg # of iterations =  2.8

     negative rho (up, down):  3.777E-03 0.000E+00

     total cpu time spent up to now is     5368.3 secs

     total energy              =    -473.81958403 Ry
     Harris-Foulkes estimate   =    -473.81959184 Ry
     estimated scf accuracy    <       0.00002496 Ry

     iteration #  6     ecut=    30.00 Ry     beta= 0.70
     Davidson diagonalization with overlap
     ethr =  1.42E-08,  avg # of iterations =  3.0

     negative rho (up, down):  3.777E-03 0.000E+00

     total cpu time spent up to now is     5467.5 secs

     total energy              =    -473.81957768 Ry
     Harris-Foulkes estimate   =    -473.81960236 Ry
     estimated scf accuracy    <       0.00033446 Ry

     iteration #  7     ecut=    30.00 Ry     beta= 0.70
     Davidson diagonalization with overlap
     ethr =  1.42E-08,  avg # of iterations =  2.0

     negative rho (up, down):  3.778E-03 0.000E+00

     total cpu time spent up to now is     5556.7 secs

     total energy              =    -473.81959009 Ry
     Harris-Foulkes estimate   =    -473.81959102 Ry
     estimated scf accuracy    <       0.00000401 Ry

     iteration #  8     ecut=    30.00 Ry     beta= 0.70
     Davidson diagonalization with overlap
     ethr =  2.28E-09,  avg # of iterations =  2.8

     negative rho (up, down):  3.778E-03 0.000E+00

     total cpu time spent up to now is     5651.5 secs

     total energy              =    -473.81959045 Ry
     Harris-Foulkes estimate   =    -473.81959086 Ry
     estimated scf accuracy    <       0.00000136 Ry

     iteration #  9     ecut=    30.00 Ry     beta= 0.70
     Davidson diagonalization with overlap
     ethr =  7.74E-10,  avg # of iterations =  2.2

     negative rho (up, down):  3.778E-03 0.000E+00

     total cpu time spent up to now is     5742.2 secs

     total energy              =    -473.81959064 Ry
     Harris-Foulkes estimate   =    -473.81959077 Ry
     estimated scf accuracy    <       0.00000057 Ry

     iteration # 10     ecut=    30.00 Ry     beta= 0.70
     Davidson diagonalization with overlap
     ethr =  3.23E-10,  avg # of iterations =  2.0

     negative rho (up, down):  3.778E-03 0.000E+00

     total cpu time spent up to now is     5830.3 secs

     total energy              =    -473.81959070 Ry
     Harris-Foulkes estimate   =    -473.81959071 Ry
     estimated scf accuracy    <       0.00000003 Ry

     iteration # 11     ecut=    30.00 Ry     beta= 0.70
     Davidson diagonalization with overlap
     ethr =  1.88E-11,  avg # of iterations =  3.5

     negative rho (up, down):  3.778E-03 0.000E+00

     total cpu time spent up to now is     5950.5 secs

     total energy              =    -473.81959070 Ry
     Harris-Foulkes estimate   =    -473.81959073 Ry
     estimated scf accuracy    <       0.00000013 Ry

     iteration # 12     ecut=    30.00 Ry     beta= 0.70
     Davidson diagonalization with overlap
     ethr =  1.88E-11,  avg # of iterations =  2.2

     negative rho (up, down):  3.778E-03 0.000E+00

     total cpu time spent up to now is     6045.1 secs

     total energy              =    -473.81959071 Ry
     Harris-Foulkes estimate   =    -473.81959072 Ry
     estimated scf accuracy    <       0.00000002 Ry

     iteration # 13     ecut=    30.00 Ry     beta= 0.70
     Davidson diagonalization with overlap
     ethr =  1.02E-11,  avg # of iterations =  2.0

     negative rho (up, down):  3.778E-03 0.000E+00

     total cpu time spent up to now is     6136.1 secs

     End of self-consistent calculation

          k = 0.0000 0.0000 0.0000 ( 52087 PWs)   bands (ev):

   -12.9702 -12.4826 -12.4507 -11.6222 -11.3267 -11.3012 -11.2877 -11.2255
   -11.2055 -10.9661 -10.7959 -10.7771 -10.7664 -10.7431 -10.4237  -9.8690
    -9.8562  -9.7765  -9.5091  -9.3541  -9.2787  -9.2104  -9.0438  -8.7823
    -8.7342  -8.3410  -8.0756  -8.0575  -7.9306  -7.9124  -7.9121  -7.8847
[...]

     total energy              =    -474.31047380 Ry
     Harris-Foulkes estimate   =    -474.31047533 Ry
     estimated scf accuracy    <       0.00000439 Ry

     iteration #  3     ecut=    30.00 Ry     beta= 0.70
     Davidson diagonalization with overlap
     ethr =  6.60E-10,  avg # of iterations =  4.0

     negative rho (up, down):  4.002E-03 0.000E+00

     total cpu time spent up to now is    85568.6 secs

     total energy              =    -474.31047451 Ry
     Harris-Foulkes estimate   =    -474.31047493 Ry
     estimated scf accuracy    <       0.00000163 Ry

     iteration #  4     ecut=    30.00 Ry     beta= 0.70
     Davidson diagonalization with overlap
     ethr =  6.60E-10,  avg # of iterations =  2.0

     negative rho (up, down):  4.002E-03 0.000E+00

     total cpu time spent up to now is    85662.4 secs

     total energy              =    -474.31047468 Ry
     Harris-Foulkes estimate   =    -474.31047478 Ry
     estimated scf accuracy    <       0.00000025 Ry

     iteration #  5     ecut=    30.00 Ry     beta= 0.70
     Davidson diagonalization with overlap
     ethr =  1.41E-10,  avg # of iterations =  3.0

     negative rho (up, down):  4.002E-03 0.000E+00

     total cpu time spent up to now is    85766.2 secs

     total energy              =    -474.31047472 Ry
     Harris-Foulkes estimate   =    -474.31047476 Ry
     estimated scf accuracy    <       0.00000010 Ry

     iteration #  6     ecut=    30.00 Ry     beta= 0.70
     Davidson diagonalization with overlap
     ethr =  5.76E-11,  avg # of iterations =  2.2

     negative rho (up, down):  4.002E-03 0.000E+00

     total cpu time spent up to now is    85861.4 secs

     total energy              =    -474.31047473 Ry
     Harris-Foulkes estimate   =    -474.31047474 Ry
     estimated scf accuracy    <       0.00000002 Ry

     iteration #  7     ecut=    30.00 Ry     beta= 0.70
     Davidson diagonalization with overlap
     ethr =  1.42E-11,  avg # of iterations =  3.0

     negative rho (up, down):  4.002E-03 0.000E+00

     total cpu time spent up to now is    85958.5 secs

     total energy              =    -474.31047474 Ry
     Harris-Foulkes estimate   =    -474.31047474 Ry
     estimated scf accuracy    <          4.8E-09 Ry

     iteration #  8     ecut=    30.00 Ry     beta= 0.70
     Davidson diagonalization with overlap
     ethr =  2.74E-12,  avg # of iterations =  3.0

     negative rho (up, down):  4.002E-03 0.000E+00

     total cpu time spent up to now is    86055.9 secs

     End of self-consistent calculation

          k = 0.0000 0.0000 0.0000 ( 52087 PWs)   bands (ev):

   -13.1937 -12.9789 -12.2061 -11.8892 -11.4859 -11.3915 -11.1958 -11.1712
   -11.0796 -10.9210 -10.8256 -10.6896 -10.6366 -10.5067 -10.2892 -10.2590
   -10.1645  -9.9338  -9.8339  -9.6408  -9.3556  -9.3200  -9.1308  -9.1228
    -8.2544  -8.0519  -7.9956  -7.9744  -7.8957  -7.8909  -7.8843  -7.8432
    -7.7676  -7.4641  -7.2030  -7.0975  -6.6261  -6.5901  -6.3101  -6.2748
    -6.2151  -6.0796  -5.8218  -5.3798  -5.2941  -5.1347  -5.0802  -5.0328
    -4.9970  -4.9162  -4.8263  -4.7559  -4.5649  -4.4606  -4.4189  -4.3467
    -4.3341  -4.2862  -4.2072  -4.1947  -4.1104  -3.9673  -3.9558  -3.9403
    -3.8482  -3.8012  -3.6895  -3.5530  -3.5285  -3.4488  -3.3711  -3.3598
    -3.1153  -3.0860  -3.0085  -2.8494  -2.7944  -2.7365  -2.5619  -2.4610
    -2.3746  -2.3240  -2.3087  -2.2949  -2.2642  -2.1203  -2.1084  -1.9818
    -1.5625  -1.5497  -0.6882  -0.6627  -0.5172  -0.5027  -0.1871  -0.0429
     0.1329   0.2222   0.2594   0.3125   0.4716   0.5023   0.5232   0.7567
     0.7589   0.7664

          k = 0.0000 0.5000 0.0000 ( 52005 PWs)   bands (ev):

   -13.0591 -12.8413 -12.0854 -12.0309 -11.7784 -11.7765 -11.3719 -11.1717
   -11.0981 -11.0335 -10.8158 -10.6537 -10.6151 -10.3350 -10.1500 -10.1485
    -9.8428  -9.8076  -9.7549  -9.7487  -9.6529  -9.5107  -9.4551  -8.5420
    -8.5114  -8.4605  -8.1571  -8.0736  -7.9455  -7.8128  -7.4477  -7.3092
    -7.2610  -7.2124  -7.1907  -6.6626  -6.5559  -6.5279  -5.8105  -5.8030
    -5.7956  -5.7917  -5.7312  -5.5458  -5.4449  -5.3999  -5.3190  -5.1848
    -5.1532  -5.1156  -5.0452  -4.9101  -4.7757  -4.7487  -4.6867  -4.4957
    -4.4029  -4.3932  -4.3665  -4.3530  -4.2092  -4.0727  -3.9587  -3.9377
    -3.8700  -3.7563  -3.6032  -3.5751  -3.5140  -3.5097  -3.5019  -3.4952
    -3.4198  -3.3608  -3.2891  -3.2006  -3.1796  -3.1145  -2.9408  -2.8344
    -2.7241  -2.6862  -2.4330  -2.3706  -2.2966  -2.2495  -1.9322  -1.8841
    -0.9947  -0.9541  -0.6689  -0.6178  -0.2102  -0.1503  -0.0106   0.0653
     0.4050   0.4057   0.5271   0.7039   0.7105   0.8351   0.8567   1.0014
     1.0295   1.0671

          k = 0.0000-1.0000 0.0000 ( 51922 PWs)   bands (ev):

   -12.6629 -12.6623 -12.4339 -12.4332 -11.7183 -11.7180 -11.4652 -11.4644
   -11.0541 -11.0530 -10.6704 -10.6702 -10.5435 -10.5428 -10.2335 -10.2326
    -9.8631  -9.8625  -9.6698  -9.6694  -9.4808  -9.4808  -9.1295  -9.1290
    -8.2451  -8.2446  -8.1664  -8.1653  -7.8568  -7.8561  -7.4585  -7.4576
    -6.6446  -6.6438  -6.5302  -6.5269  -6.3140  -6.3137  -5.8563  -5.8525
    -5.6915  -5.6910  -5.5220  -5.5219  -5.4497  -5.4479  -5.1538  -5.1534
    -5.0914  -5.0899  -4.9732  -4.9725  -4.9045  -4.9043  -4.8090  -4.8071
    -4.6440  -4.6437  -4.5538  -4.5531  -4.4210  -4.4174  -4.2476  -4.2454
    -4.1957  -4.1957  -3.8372  -3.8360  -3.8310  -3.8301  -3.5335  -3.5327
    -3.4086  -3.4074  -3.2991  -3.2980  -3.2259  -3.2245  -3.1072  -3.1064
    -3.0417  -3.0409  -2.3577  -2.3569  -1.9278  -1.9205  -1.9090  -1.9025
    -0.7196  -0.7189  -0.6663  -0.6644   0.0254   0.0313   0.3538   0.3548
     0.4301   0.4305   0.4687   0.4691   1.0277   1.0290   1.1377   1.1395
     1.1693   1.1698

          k =-0.5000 0.0000 0.0000 ( 51914 PWs)   bands (ev):

   -13.1059 -13.1042 -11.9749 -11.9733 -11.5066 -11.5044 -11.2775 -11.2752
   -11.0711 -11.0702 -10.6927 -10.6909 -10.3153 -10.3142 -10.0635 -10.0628
   -10.0628 -10.0611  -9.9712  -9.9700  -9.8070  -9.8061  -8.4897  -8.4875
    -8.3193  -8.3168  -8.0832  -8.0817  -7.8635  -7.8615  -7.8476  -7.8464
    -7.7448  -7.7434  -7.1433  -7.1424  -6.5741  -6.5732  -6.2968  -6.2954
    -6.1634  -6.1622  -5.7221  -5.7196  -5.1071  -5.1053  -5.0648  -5.0623
    -4.9094  -4.9068  -4.7676  -4.7667  -4.5984  -4.5978  -4.3277  -4.3265
    -4.2985  -4.2974  -4.0974  -4.0957  -3.9748  -3.9731  -3.7882  -3.7881
    -3.7162  -3.7146  -3.6422  -3.6405  -3.4592  -3.4573  -3.3832  -3.3818
    -3.2427  -3.2413  -3.2241  -3.2222  -2.7878  -2.7839  -2.7789  -2.7755
    -2.3442  -2.3418  -2.3411  -2.3389  -2.0934  -2.0911  -2.0896  -2.0867
    -1.5433  -1.5417  -0.6720  -0.6713  -0.3311  -0.3274   0.0215   0.0255
     0.3067   0.3079   0.4894   0.4916   0.5260   0.5303   0.6178   0.6199
     0.8111   0.8129

          k =-0.5000 0.5000 0.0000 ( 51960 PWs)   bands (ev):

   -12.9704 -12.9687 -11.9374 -11.9356 -11.8507 -11.8491 -11.3915 -11.3891
   -11.0364 -11.0360 -10.6242 -10.6213 -10.5645 -10.5632  -9.9954  -9.9952
    -9.9507  -9.9494  -9.7290  -9.7276  -9.6897  -9.6893  -9.0313  -9.0299
    -8.3647  -8.3635  -8.0667  -8.0649  -7.8305  -7.8293  -7.5270  -7.5250
    -7.2637  -7.2627  -6.9112  -6.9093  -6.5244  -6.5234  -5.8644  -5.8640
    -5.7396  -5.7371  -5.7230  -5.7227  -5.4361  -5.4353  -5.2571  -5.2562
    -5.0253  -5.0235  -4.9087  -4.9081  -4.8586  -4.8571  -4.4356  -4.4347
    -4.3728  -4.3723  -4.3021  -4.3013  -3.9941  -3.9940  -3.9109  -3.9102
    -3.8415  -3.8404  -3.7104  -3.7085  -3.5973  -3.5963  -3.5124  -3.5112
    -3.3432  -3.3423  -3.2201  -3.2180  -3.1698  -3.1677  -3.0038  -3.0027
    -2.7704  -2.7687  -2.6780  -2.6761  -2.2516  -2.2503  -1.8877  -1.8866
    -0.9622  -0.9617  -0.6361  -0.6354  -0.0132  -0.0092   0.3426   0.3429
     0.5370   0.5387   0.7260   0.7289   0.8004   0.8018   0.8892   0.8926
     1.1825   1.1853

          k =-0.5000-1.0000 0.0000 ( 52096 PWs)   bands (ev):

   -12.5742 -12.5722 -12.5667 -12.5659 -11.5174 -11.5168 -11.4899 -11.4887
   -11.0842 -11.0828 -11.0390 -11.0361 -10.2790 -10.2784 -10.2608 -10.2603
    -9.6329  -9.6319  -9.5919  -9.5915  -9.5123  -9.5109  -9.4430  -9.4428
    -8.1954  -8.1948  -8.1647  -8.1641  -7.7357  -7.7347  -7.5417  -7.5402
    -6.6916  -6.6880  -6.6294  -6.6293  -6.1731  -6.1710  -6.0378  -6.0368
    -5.6317  -5.6304  -5.4975  -5.4963  -5.4330  -5.4303  -5.2777  -5.2761
    -5.1363  -5.1355  -4.8133  -4.8124  -4.7665  -4.7648  -4.7067  -4.7052
    -4.5530  -4.5503  -4.5397  -4.5354  -4.4186  -4.4170  -4.3500  -4.3496
    -4.0909  -4.0897  -4.0228  -4.0210  -3.7477  -3.7451  -3.6006  -3.6003
    -3.4626  -3.4624  -3.2433  -3.2424  -3.2247  -3.2240  -3.1549  -3.1543
    -3.0000  -2.9988  -2.7438  -2.7421  -1.9129  -1.9066  -1.8946  -1.8873
    -0.7170  -0.7160  -0.6628  -0.6616   0.4974   0.5034   0.5244   0.5253
     0.6606   0.6633   0.7210   0.7223   1.0064   1.0100   1.0749   1.0774
     1.1184   1.1222

     the Fermi energy is    -1.7143 ev

!    total energy              =    -474.31047474 Ry
     Harris-Foulkes estimate   =    -474.31047474 Ry
     estimated scf accuracy    <          9.9E-10 Ry

     The total energy is the sum of the following terms:

     one-electron contribution =   -2991.19221747 Ry
     hartree contribution      =    1527.32694740 Ry
     xc contribution           =    -255.82369104 Ry
     ewald contribution        =    1245.37849601 Ry
     smearing contrib. (-TS)   =      -0.00000965 Ry

     convergence has been achieved in   8 iterations

     negative rho (up, down):  4.002E-03 0.000E+00

     Forces acting on atoms (cartesian axes, Ry/au):

     atom    1 type  2   force =    -0.00202407   -0.02329916    0.00798134
     atom    2 type  2   force =    -0.00202407    0.02329917    0.00798134
     atom    3 type  2   force =     0.00175633   -0.02368303    0.00844620
     atom    4 type  2   force =     0.00175634    0.02368303    0.00844620
     atom    5 type  2   force =     0.00198366   -0.02330392    0.00799853
     atom    6 type  2   force =     0.00198366    0.02330392    0.00799853
     atom    7 type  2   force =    -0.00205232   -0.02330726    0.00799714
     atom    8 type  2   force =    -0.00205232    0.02330726    0.00799713
     atom    9 type  2   force =     0.00174609   -0.02368870    0.00846092
     atom   10 type  2   force =     0.00174610    0.02368870    0.00846092
     atom   11 type  2   force =    -0.00178886   -0.02369183    0.00845517
     atom   12 type  2   force =    -0.00178887    0.02369183    0.00845517
     atom   13 type  2   force =    -0.00183993   -0.02368870    0.00844745
     atom   14 type  2   force =    -0.00183993    0.02368870    0.00844745
     atom   15 type  2   force =     0.00198930   -0.02329489    0.00798282
     atom   16 type  2   force =     0.00198930    0.02329489    0.00798281
     atom   17 type  1   force =     0.00511692   -0.00000000   -0.00360454
     atom   18 type  1   force =    -0.00558973    0.00000000   -0.00152422
     atom   19 type  1   force =     0.00578374   -0.00000001   -0.00158164
     atom   20 type  1   force =    -0.00491199   -0.00000000   -0.00353261
     atom   21 type  1   force =     0.00590585   -0.00000001   -0.00154648
     atom   22 type  1   force =    -0.00491875    0.00000000   -0.00362780
     atom   23 type  1   force =     0.00517790   -0.00000001   -0.00355828
     atom   24 type  1   force =    -0.00555956    0.00000000   -0.00159746
     atom   25 type  1   force =    -0.00632581    0.00000000   -0.03696836
     atom   26 type  1   force =    -0.00045084    0.00000000    0.01397327
     atom   27 type  1   force =     0.00592272   -0.00000002   -0.03703846
     atom   28 type  1   force =    -0.00036789   -0.00000001    0.00570669
     atom   29 type  1   force =     0.00592501   -0.00000001   -0.03772868
     atom   30 type  1   force =    -0.00023925    0.00000001    0.00482369
     atom   31 type  1   force =    -0.00631813    0.00000002   -0.03746780
     atom   32 type  1   force =    -0.00024554   -0.00000001    0.01327912
     atom   33 type  1   force =    -0.00003817    0.00000536    0.00011127
     atom   34 type  1   force =     0.00031755   -0.00020744   -0.00020800
     atom   35 type  1   force =     0.00011009    0.00003761   -0.00004726
     atom   36 type  1   force =     0.00011011   -0.00003760   -0.00004727
     atom   37 type  1   force =     0.00000067   -0.00014957    0.00030370
     atom   38 type  1   force =     0.00000066    0.00014957    0.00030372
     atom   39 type  1   force =     0.00031754    0.00020745   -0.00020795
     atom   40 type  1   force =    -0.00003812   -0.00000535    0.00011129
     atom   41 type  1   force =     0.00033306   -0.00016745    0.00015716
     atom   42 type  1   force =    -0.00005423   -0.00003282   -0.00027887
     atom   43 type  1   force =     0.00005283   -0.00008631    0.00011340
     atom   44 type  1   force =     0.00005288    0.00008634    0.00011340
     atom   45 type  1   force =    -0.00020234   -0.00004486   -0.00008532
     atom   46 type  1   force =    -0.00020232    0.00004484   -0.00008534
     atom   47 type  1   force =    -0.00005432    0.00003287   -0.00027887
     atom   48 type  1   force =     0.00033304    0.00016742    0.00015715
     atom   49 type  1   force =     0.00026090   -0.00000001    0.00011381
     atom   50 type  1   force =     0.00027348   -0.00000004    0.00008557
     atom   51 type  1   force =     0.00010764    0.00000003    0.00009935
     atom   52 type  1   force =     0.00039145   -0.00000002    0.00000936
     atom   53 type  1   force =    -0.00015863   -0.00000003   -0.00018385
     atom   54 type  1   force =    -0.00031827    0.00000001    0.00005590
     atom   55 type  1   force =    -0.00011039   -0.00000000    0.00017780
     atom   56 type  1   force =     0.00006985    0.00000001   -0.00003575

     Total force =     0.001361     Total SCF correction =     0.000051

     bfgs converged in  61 scf cycles and  60 bfgs steps
     (criteria: energy <  5.0E-05 Ry, force <  5.0E-04 Ry/Bohr)

     End of BFGS Geometry Optimization

     Final energy   =    -474.3104747392 Ry
Begin final coordinates

ATOMIC_POSITIONS (alat)
H        0.000000000  -0.067550000  -0.067550000    0   0   0
H        0.000000000   0.067550000  -0.067550000    0   0   0
H        0.250000000  -0.067550000  -0.067550000    0   0   0
H        0.250000000   0.067550000  -0.067550000    0   0   0
H        0.250000000   0.182450000  -0.067550000    0   0   0
H        0.250000000   0.317550000  -0.067550000    0   0   0
H        0.500000000   0.182450000  -0.067550000    0   0   0
H        0.500000000   0.317550000  -0.067550000    0   0   0
H        0.750000000   0.182450000  -0.067550000    0   0   0
H        0.750000000   0.317550000  -0.067550000    0   0   0
H        0.000000000   0.182450000  -0.067550000    0   0   0
H        0.000000000   0.317550000  -0.067550000    0   0   0
H        0.500000000  -0.067550000  -0.067550000    0   0   0
H        0.500000000   0.067550000  -0.067550000    0   0   0
H        0.750000000  -0.067550000  -0.067550000    0   0   0
H        0.750000000   0.067550000  -0.067550000    0   0   0
Si       0.000000000   0.000000000   0.000000000    0   0   0
Si       0.250000000   0.000000000   0.000000000    0   0   0
Si       0.000000000   0.250000000   0.000000000    0   0   0
Si       0.250000000   0.250000000   0.000000000    0   0   0
Si       0.500000000   0.000000000   0.000000000    0   0   0
Si       0.750000000   0.000000000   0.000000000    0   0   0
Si       0.500000000   0.250000000   0.000000000    0   0   0
Si       0.750000000   0.250000000   0.000000000    0   0   0
Si       0.125000000   0.000000000   0.088388348    0   0   0
Si       0.375000000   0.000000000   0.088388348    0   0   0
Si       0.125000000   0.250000000   0.088388348    0   0   0
Si       0.375000000   0.250000000   0.088388348    0   0   0
Si       0.625000000   0.000000000   0.088388348    0   0   0
Si       0.875000000   0.000000000   0.088388348    0   0   0
Si       0.625000000   0.250000000   0.088388348    0   0   0
Si       0.875000000   0.250000000   0.088388348    0   0   0
Si       0.624798978   0.375011022   0.172484305
Si       0.124762789   0.125020322   0.172616018
Si       0.374743609   0.125650856   0.181652051
Si       0.374743609   0.374349144   0.181652049
Si       0.874797487   0.124345429   0.181465096
Si       0.874797487   0.375654571   0.181465091
Si       0.124762792   0.374979678   0.172616014
Si       0.624798969   0.124988981   0.172484299
Si       0.745003702   0.382707230   0.267796639
Si       0.244930271   0.132619664   0.268145938
Si       0.504606997   0.132560146   0.267918696
Si       0.504606991   0.367439852   0.267918697
Si       0.004456481   0.117322575   0.267899714
Si       0.004456481   0.382677418   0.267899710
Si       0.244930279   0.367380335   0.268145933
Si       0.745003697   0.117292776   0.267796638
Si       0.040943238  -0.000000006   0.363370164
Si       0.185941105   0.000000003   0.313459914
Si       0.063116595   0.249999993   0.313270765
Si       0.207912868   0.250000005   0.363401632
Si       0.563633726   0.000000001   0.313507124
Si       0.708673391   0.000000001   0.363361938
Si       0.541439539   0.250000000   0.363092687
Si       0.686320136   0.250000002   0.313234589
End final coordinates



     Writing output data file si.save/
 
     init_run     :     52.31s CPU     55.92s WALL (       1 calls)
     electrons    :  83127.55s CPU  84732.47s WALL (      61 calls)
     update_pot   :     51.00s CPU     51.56s WALL (      60 calls)
     forces       :   1128.50s CPU   1162.30s WALL (      61 calls)

     Called by init_run:
     wfcinit      :     50.34s CPU     53.37s WALL (       1 calls)
     potinit      :      0.46s CPU      0.56s WALL (       1 calls)
     hinit0       :      0.43s CPU      0.55s WALL (       1 calls)

     Called by electrons:
     c_bands      :  69156.65s CPU  70278.00s WALL (     795 calls)
     sum_band     :  12949.41s CPU  13247.36s WALL (     795 calls)
     v_of_rho     :    318.23s CPU    322.63s WALL (     839 calls)
     newd         :    664.09s CPU    856.53s WALL (     839 calls)
     mix_rho      :    100.18s CPU    102.61s WALL (     795 calls)

     Called by c_bands:
     init_us_2    :   1171.81s CPU   1185.42s WALL (    9912 calls)
     cegterg      :  63374.65s CPU  64455.64s WALL (    4770 calls)

     Called by sum_band:
     sum_band:bec :      4.93s CPU      5.03s WALL (    4770 calls)
     addusdens    :    918.14s CPU   1086.97s WALL (     795 calls)

     Called by *egterg:
     h_psi        :  49900.80s CPU  50583.68s WALL (   22198 calls)
     s_psi        :   6274.92s CPU   6320.42s WALL (   22198 calls)
     g_psi        :     90.17s CPU     91.08s WALL (   17422 calls)
     cdiaghg      :    536.47s CPU    539.52s WALL (   21730 calls)

     Called by h_psi:
     h_psi:pot    :  49802.19s CPU  50372.60s WALL (   22198 calls)
     h_psi:calbec :   6255.43s CPU   6296.07s WALL (   22198 calls)
     vloc_psi     :  37276.86s CPU  37767.23s WALL (   22198 calls)
     add_vuspsi   :   6269.26s CPU   6308.97s WALL (   22198 calls)

     General routines
     calbec       :   9407.22s CPU   9468.80s WALL (   28432 calls)
     fft          :    300.10s CPU    304.37s WALL (    9977 calls)
     ffts         :     20.39s CPU     20.58s WALL (     795 calls)
     fftw         :  37008.79s CPU  37482.92s WALL ( 3089312 calls)
 
     Parallel routines
     fft_scatt_xy :   7881.17s CPU   7985.26s WALL ( 3100084 calls)
     fft_scatt_yz :  10770.81s CPU  10923.10s WALL ( 3100084 calls)
 
     PWSCF        :     23h26m CPU     23h54m WALL

 
   This run was terminated on:   0:31:27  26Jul2019            

=------------------------------------------------------------------------------=
   JOB DONE.
=------------------------------------------------------------------------------=
