
     Program PWSCF v.6.4.1 starts on 29Jul2019 at 20:21:26 

     This program is part of the open-source Quantum ESPRESSO suite
     for quantum simulation of materials; please cite
         "P. Giannozzi et al., J. Phys.:Condens. Matter 21 395502 (2009);
         "P. Giannozzi et al., J. Phys.:Condens. Matter 29 465901 (2017);
          URL http://www.quantum-espresso.org", 
     in publications or presentations arising from this work. More details at
     http://www.quantum-espresso.org/quote

     Parallel version (MPI), running on     4 processors

     MPI processes distributed on     1 nodes
     R & G space division:  proc/nbgrp/npool/nimage =       4
     Reading input from al.1_scf.in

     Current dimensions of program PWSCF are:
     Max number of different atomic species (ntypx) = 10
     Max number of k-points (npk) =  40000
     Max angular momentum in pseudopotentials (lmaxx) =  3
               file Al.pbe-n-kjpaw_psl.1.0.0.UPF: wavefunction(s)  3S 3P renormalized

     Subspace diagonalization in iterative solution of the eigenvalue problem:
     a serial algorithm will be used

     Found symmetry operation: I + ( -0.5000  0.0000 -0.5000)
     This is a supercell, fractional translations are disabled
 
     Parallelization info
     --------------------
     sticks:   dense  smooth     PW     G-vecs:    dense   smooth      PW
     Min         370     187     58                10750     3817     650
     Max         371     188     59                10753     3820     651
     Sum        1481     749    233                43003    15275    2601
 


     bravais-lattice index     =            1
     lattice parameter (alat)  =       7.6317  a.u.
     unit-cell volume          =     444.4857 (a.u.)^3
     number of atoms/cell      =            4
     number of atomic types    =            1
     number of electrons       =        12.00
     number of Kohn-Sham states=           10
     kinetic-energy cutoff     =      40.0000  Ry
     charge density cutoff     =     320.0000  Ry
     convergence threshold     =      1.0E-08
     mixing beta               =       0.7000
     number of iterations used =            8  plain     mixing
     Exchange-correlation      = SLA PW PBX PBC ( 1  4  3  4 0 0)

     celldm(1)=   7.631664  celldm(2)=   0.000000  celldm(3)=   0.000000
     celldm(4)=   0.000000  celldm(5)=   0.000000  celldm(6)=   0.000000

     crystal axes: (cart. coord. in units of alat)
               a(1) = (   1.000000   0.000000   0.000000 )  
               a(2) = (   0.000000   1.000000   0.000000 )  
               a(3) = (   0.000000   0.000000   1.000000 )  

     reciprocal axes: (cart. coord. in units 2 pi/alat)
               b(1) = (  1.000000  0.000000  0.000000 )  
               b(2) = (  0.000000  1.000000  0.000000 )  
               b(3) = (  0.000000  0.000000  1.000000 )  


     PseudoPot. # 1 for Al read from file:
     /home/bngjn/qe/SSSP_precision_pseudos/Al.pbe-n-kjpaw_psl.1.0.0.UPF
     MD5 check sum: cfc449ca30b5f3223ec38ddd88ac046d
     Pseudo is Projector augmented-wave + core cor, Zval =  3.0
     Generated using "atomic" code by A. Dal Corso v.5.1
     Shape of augmentation charge: PSQ
     Using radial grid of 1135 points,  6 beta functions with: 
                l(1) =   0
                l(2) =   0
                l(3) =   1
                l(4) =   1
                l(5) =   2
                l(6) =   2
     Q(r) pseudized with 0 coefficients 


     atomic species   valence    mass     pseudopotential
        Al             3.00    26.98154     Al( 1.00)

     48 Sym. Ops., with inversion, found



   Cartesian axes

     site n.     atom                  positions (alat units)
         1           Al  tau(   1) = (   0.0000000   0.0000000   0.0000000  )
         2           Al  tau(   2) = (   0.5000000   0.0000000   0.5000000  )
         3           Al  tau(   3) = (   0.5000000   0.5000000   0.0000000  )
         4           Al  tau(   4) = (   0.0000000   0.5000000   0.5000000  )

     number of k points=    56  gaussian smearing, width (Ry)=  0.0100
                       cart. coord. in units 2pi/alat
        k(    1) = (   0.0000000   0.0000000   0.0000000), wk =   0.0020000
        k(    2) = (   0.0000000   0.0000000   0.1000000), wk =   0.0120000
        k(    3) = (   0.0000000   0.0000000   0.2000000), wk =   0.0120000
        k(    4) = (   0.0000000   0.0000000   0.3000000), wk =   0.0120000
        k(    5) = (   0.0000000   0.0000000   0.4000000), wk =   0.0120000
        k(    6) = (   0.0000000   0.0000000  -0.5000000), wk =   0.0060000
        k(    7) = (   0.0000000   0.1000000   0.1000000), wk =   0.0240000
        k(    8) = (   0.0000000   0.1000000   0.2000000), wk =   0.0480000
        k(    9) = (   0.0000000   0.1000000   0.3000000), wk =   0.0480000
        k(   10) = (   0.0000000   0.1000000   0.4000000), wk =   0.0480000
        k(   11) = (   0.0000000   0.1000000  -0.5000000), wk =   0.0240000
        k(   12) = (   0.0000000   0.2000000   0.2000000), wk =   0.0240000
        k(   13) = (   0.0000000   0.2000000   0.3000000), wk =   0.0480000
        k(   14) = (   0.0000000   0.2000000   0.4000000), wk =   0.0480000
        k(   15) = (   0.0000000   0.2000000  -0.5000000), wk =   0.0240000
        k(   16) = (   0.0000000   0.3000000   0.3000000), wk =   0.0240000
        k(   17) = (   0.0000000   0.3000000   0.4000000), wk =   0.0480000
        k(   18) = (   0.0000000   0.3000000  -0.5000000), wk =   0.0240000
        k(   19) = (   0.0000000   0.4000000   0.4000000), wk =   0.0240000
        k(   20) = (   0.0000000   0.4000000  -0.5000000), wk =   0.0240000
        k(   21) = (   0.0000000  -0.5000000  -0.5000000), wk =   0.0060000
        k(   22) = (   0.1000000   0.1000000   0.1000000), wk =   0.0160000
        k(   23) = (   0.1000000   0.1000000   0.2000000), wk =   0.0480000
        k(   24) = (   0.1000000   0.1000000   0.3000000), wk =   0.0480000
        k(   25) = (   0.1000000   0.1000000   0.4000000), wk =   0.0480000
        k(   26) = (   0.1000000   0.1000000  -0.5000000), wk =   0.0240000
        k(   27) = (   0.1000000   0.2000000   0.2000000), wk =   0.0480000
        k(   28) = (   0.1000000   0.2000000   0.3000000), wk =   0.0960000
        k(   29) = (   0.1000000   0.2000000   0.4000000), wk =   0.0960000
        k(   30) = (   0.1000000   0.2000000  -0.5000000), wk =   0.0480000
        k(   31) = (   0.1000000   0.3000000   0.3000000), wk =   0.0480000
        k(   32) = (   0.1000000   0.3000000   0.4000000), wk =   0.0960000
        k(   33) = (   0.1000000   0.3000000  -0.5000000), wk =   0.0480000
        k(   34) = (   0.1000000   0.4000000   0.4000000), wk =   0.0480000
        k(   35) = (   0.1000000   0.4000000  -0.5000000), wk =   0.0480000
        k(   36) = (   0.1000000  -0.5000000  -0.5000000), wk =   0.0120000
        k(   37) = (   0.2000000   0.2000000   0.2000000), wk =   0.0160000
        k(   38) = (   0.2000000   0.2000000   0.3000000), wk =   0.0480000
        k(   39) = (   0.2000000   0.2000000   0.4000000), wk =   0.0480000
        k(   40) = (   0.2000000   0.2000000  -0.5000000), wk =   0.0240000
        k(   41) = (   0.2000000   0.3000000   0.3000000), wk =   0.0480000
        k(   42) = (   0.2000000   0.3000000   0.4000000), wk =   0.0960000
        k(   43) = (   0.2000000   0.3000000  -0.5000000), wk =   0.0480000
        k(   44) = (   0.2000000   0.4000000   0.4000000), wk =   0.0480000
        k(   45) = (   0.2000000   0.4000000  -0.5000000), wk =   0.0480000
        k(   46) = (   0.2000000  -0.5000000  -0.5000000), wk =   0.0120000
        k(   47) = (   0.3000000   0.3000000   0.3000000), wk =   0.0160000
        k(   48) = (   0.3000000   0.3000000   0.4000000), wk =   0.0480000
        k(   49) = (   0.3000000   0.3000000  -0.5000000), wk =   0.0240000
        k(   50) = (   0.3000000   0.4000000   0.4000000), wk =   0.0480000
        k(   51) = (   0.3000000   0.4000000  -0.5000000), wk =   0.0480000
        k(   52) = (   0.3000000  -0.5000000  -0.5000000), wk =   0.0120000
        k(   53) = (   0.4000000   0.4000000   0.4000000), wk =   0.0160000
        k(   54) = (   0.4000000   0.4000000  -0.5000000), wk =   0.0240000
        k(   55) = (   0.4000000  -0.5000000  -0.5000000), wk =   0.0120000
        k(   56) = (  -0.5000000  -0.5000000  -0.5000000), wk =   0.0020000

     Dense  grid:    43003 G-vectors     FFT dimensions: (  45,  45,  45)

     Smooth grid:    15275 G-vectors     FFT dimensions: (  32,  32,  32)

     Estimated max dynamical RAM per process >      43.64 MB

     Estimated total dynamical RAM >     174.55 MB

     Initial potential from superposition of free atoms

     starting charge   11.99084, renormalised to   12.00000
     Starting wfcs are   16 randomized atomic wfcs
     Checking if some PAW data can be deallocated... 

     total cpu time spent up to now is        1.9 secs

     Self-consistent Calculation

     iteration #  1     ecut=    40.00 Ry     beta= 0.70
     Davidson diagonalization with overlap
     ethr =  1.00E-02,  avg # of iterations =  3.3

     Threshold (ethr) on eigenvalues was too large:
     Diagonalizing with lowered threshold

     Davidson diagonalization with overlap
     ethr =  1.82E-04,  avg # of iterations =  3.0

     total cpu time spent up to now is        4.2 secs

     total energy              =    -158.01050671 Ry
     Harris-Foulkes estimate   =    -158.01527010 Ry
     estimated scf accuracy    <       0.02172405 Ry

     iteration #  2     ecut=    40.00 Ry     beta= 0.70
     Davidson diagonalization with overlap
     ethr =  1.81E-04,  avg # of iterations =  1.1

     total cpu time spent up to now is        5.2 secs

     total energy              =    -158.01035084 Ry
     Harris-Foulkes estimate   =    -158.01072286 Ry
     estimated scf accuracy    <       0.00161658 Ry

     iteration #  3     ecut=    40.00 Ry     beta= 0.70
     Davidson diagonalization with overlap
     ethr =  1.35E-05,  avg # of iterations =  1.7

     total cpu time spent up to now is        6.3 secs

     total energy              =    -158.01041309 Ry
     Harris-Foulkes estimate   =    -158.01041344 Ry
     estimated scf accuracy    <       0.00000215 Ry

     iteration #  4     ecut=    40.00 Ry     beta= 0.70
     Davidson diagonalization with overlap
     ethr =  1.79E-08,  avg # of iterations =  4.7

     total cpu time spent up to now is        7.9 secs

     total energy              =    -158.01043383 Ry
     Harris-Foulkes estimate   =    -158.01043446 Ry
     estimated scf accuracy    <       0.00000103 Ry

     iteration #  5     ecut=    40.00 Ry     beta= 0.70
     Davidson diagonalization with overlap
     ethr =  8.58E-09,  avg # of iterations =  1.0

     total cpu time spent up to now is        8.9 secs

     End of self-consistent calculation

          k = 0.0000 0.0000 0.0000 (  1935 PWs)   bands (ev):

    -3.2256   4.9971   4.9971   4.9971   6.3254   6.3255   6.3255  13.1844
    13.1844  13.5374

          k = 0.0000 0.0000 0.1000 (  1895 PWs)   bands (ev):

    -3.1347   3.8869   5.0801   5.0801   6.4131   6.4131   7.5928  11.7572
    11.7572  12.9385

          k = 0.0000 0.0000 0.2000 (  1895 PWs)   bands (ev):

    -2.8627   2.4566   5.3294   5.3294   6.6742   6.6742   9.4942  10.3364
    10.3364  11.8064

          k = 0.0000 0.0000 0.3000 (  1907 PWs)   bands (ev):

    -2.4105   1.1521   5.7450   5.7450   7.1008   7.1008   9.0817   9.0817
    10.6533  10.6533

          k = 0.0000 0.0000 0.4000 (  1912 PWs)   bands (ev):

    -1.7799   0.0057   6.3276   6.3276   7.6620   7.6620   7.9955   7.9955
     9.6338   9.6339

          k = 0.0000 0.0000-0.5000 (  1888 PWs)   bands (ev):

    -0.9734  -0.9733   7.0775   7.0775   7.0776   7.0776   8.0926   8.0926
     9.0478   9.0479

          k = 0.0000 0.1000 0.1000 (  1893 PWs)   bands (ev):

    -3.0440   3.9725   3.9725   5.1632   6.5000   7.6773   7.6773  10.6974
    11.8413  11.8413

          k = 0.0000 0.1000 0.2000 (  1898 PWs)   bands (ev):

    -2.7722   2.5437   4.2292   5.4125   6.7569   7.9284   9.3354   9.5749
    10.4201  11.8912

          k = 0.0000 0.1000 0.3000 (  1909 PWs)   bands (ev):

    -2.3202   1.2401   4.6560   5.8282   7.1521   8.1274   8.3340   9.1654
    10.7495  11.6545

          k = 0.0000 0.1000 0.4000 (  1900 PWs)   bands (ev):

    -1.6900   0.0944   5.2510   6.4109   6.9012   7.8799   8.0790   8.8038
     9.8097  10.7483

          k = 0.0000 0.1000-0.5000 (  1898 PWs)   bands (ev):

    -0.8841  -0.8839   6.0091   6.0093   7.1609   7.1610   8.5468   8.5469
     9.9025   9.9027

          k = 0.0000 0.2000 0.2000 (  1893 PWs)   bands (ev):

    -2.5008   2.8044   2.8044   5.6619   6.9775   8.0152   9.8099   9.8100
    10.6714  10.6715

          k = 0.0000 0.2000 0.3000 (  1901 PWs)   bands (ev):

    -2.0498   1.5037   3.2380   6.0778   6.6011   7.5749   9.4163  10.1259
    11.0901  11.0952

          k = 0.0000 0.2000 0.4000 (  1907 PWs)   bands (ev):

    -1.4208   0.3602   3.8425   5.5478   6.6608   8.1296   8.3295   9.7413
    11.0016  11.6757

          k = 0.0000 0.2000-0.5000 (  1896 PWs)   bands (ev):

    -0.6164  -0.6162   4.6149   4.6150   7.4111   7.4112   8.8803   8.8804
    11.6811  11.6812

          k = 0.0000 0.3000 0.3000 (  1891 PWs)   bands (ev):

    -1.6002   1.9419   1.9419   5.3859   6.4941   7.9649   9.8345   9.8345
    11.2458  11.2459

          k = 0.0000 0.3000 0.4000 (  1903 PWs)   bands (ev):

    -0.9732   0.8022   2.5531   4.2821   7.0775   8.5622   8.7473  10.2373
    10.4199  11.8881

          k = 0.0000 0.3000-0.5000 (  1900 PWs)   bands (ev):

    -0.1713  -0.1712   3.3346   3.3348   7.8283   7.8284   9.3260   9.3261
    11.1723  11.1725

          k = 0.0000 0.4000 0.4000 (  1901 PWs)   bands (ev):

    -0.3490   1.4186   1.4186   3.1637   7.6614   9.1644   9.3323   9.3323
    10.8433  10.8433

          k = 0.0000 0.4000-0.5000 (  1914 PWs)   bands (ev):

     0.4494   0.4495   2.2070   2.2071   8.4128   8.4129   9.9285   9.9286
    10.0846  10.0848

          k = 0.0000-0.5000-0.5000 (  1924 PWs)   bands (ev):

     1.2433   1.2434   1.2434   1.2436   9.1647   9.1649   9.1649   9.1650
    10.6884  10.6885

          k = 0.1000 0.1000 0.1000 (  1899 PWs)   bands (ev):

    -2.9533   4.0581   4.0581   4.0581   7.7604   7.7604   7.7604  10.7827
    10.7827  10.7827

          k = 0.1000 0.1000 0.2000 (  1900 PWs)   bands (ev):

    -2.6817   2.6306   4.3146   4.3146   8.0011   8.0011   9.4293   9.4293
     9.6486  11.0432

          k = 0.1000 0.1000 0.3000 (  1906 PWs)   bands (ev):

    -2.2300   1.3280   4.7407   4.7407   8.0463   8.0463   8.5582   8.5583
    11.3740  11.8195

          k = 0.1000 0.1000 0.4000 (  1905 PWs)   bands (ev):

    -1.6002   0.1831   5.3331   5.3331   7.0381   7.0381   9.0447   9.0448
    10.8485  10.8485

          k = 0.1000 0.1000-0.5000 (  1900 PWs)   bands (ev):

    -0.7948  -0.7946   5.9823   5.9824   6.2286   6.2287   9.5269   9.5270
    10.2053  10.2054

          k = 0.1000 0.2000 0.2000 (  1900 PWs)   bands (ev):

    -2.4105   2.8912   2.8912   4.5701   7.9003   8.4253   9.5534   9.5534
    10.0194  10.0194

          k = 0.1000 0.2000 0.3000 (  1903 PWs)   bands (ev):

    -1.9598   1.5914   3.3244   4.9929   6.7511   8.3835   8.7506  10.0537
    10.3414  12.1367

          k = 0.1000 0.2000 0.4000 (  1905 PWs)   bands (ev):

    -1.3312   0.4487   3.9282   5.4891   5.7580   7.2990   9.3291  10.6481
    10.6944  11.3133

          k = 0.1000 0.2000-0.5000 (  1904 PWs)   bands (ev):

    -0.5272  -0.5271   4.6974   4.6975   6.3750   6.3751  10.0590  10.0591
    11.4023  11.4025

          k = 0.1000 0.3000 0.3000 (  1902 PWs)   bands (ev):

    -1.5105   2.0294   2.0294   5.3225   5.5936   8.8137   8.8137   9.1702
    12.2066  12.2071

          k = 0.1000 0.3000 0.4000 (  1896 PWs)   bands (ev):

    -0.8839   0.8904   2.6402   4.3651   6.0372   7.7239   9.4057   9.7601
    11.0820  11.3985

          k = 0.1000 0.3000-0.5000 (  1890 PWs)   bands (ev):

    -0.0825  -0.0823   3.4208   3.4209   6.7960   6.7961  10.1622  10.1623
    10.5096  10.5097

          k = 0.1000 0.4000 0.4000 (  1905 PWs)   bands (ev):

    -0.2600   1.5065   1.5065   3.2501   6.6273   8.3161   8.3161   9.9982
    10.3528  12.0058

          k = 0.1000 0.4000-0.5000 (  1898 PWs)   bands (ev):

     0.5379   0.5380   2.2943   2.2944   7.3885   7.3886   9.0748   9.0750
    11.1043  11.1045

          k = 0.1000-0.5000-0.5000 (  1908 PWs)   bands (ev):

     1.3313   1.3314   1.3314   1.3316   8.1489   8.1490   8.1490   8.1491
    11.8538  11.8540

          k = 0.2000 0.2000 0.2000 (  1899 PWs)   bands (ev):

    -2.1399   3.1513   3.1513   3.1513   8.2594   8.2594   8.2594  10.2075
    10.2075  10.2075

          k = 0.2000 0.2000 0.3000 (  1900 PWs)   bands (ev):

    -1.6900   1.8544   3.5832   3.5832   7.0152   7.0153   8.6926  10.6163
    10.6163  12.0427

          k = 0.2000 0.2000 0.4000 (  1891 PWs)   bands (ev):

    -1.0626   0.7139   4.1829   4.1829   5.9200   5.9201   9.2863  10.9645
    11.1789  11.1789

          k = 0.2000 0.2000-0.5000 (  1908 PWs)   bands (ev):

    -0.2602  -0.2601   4.8306   4.8307   5.1063   5.1064  10.0441  10.0443
    11.6912  11.6913

          k = 0.2000 0.3000 0.3000 (  1894 PWs)   bands (ev):

    -1.2416   2.2915   2.2915   4.0110   5.7589   7.4427   7.4427  10.8091
    11.0388  12.6705

          k = 0.2000 0.3000 0.4000 (  1890 PWs)   bands (ev):

    -0.6161   1.1548   2.9008   4.4966   4.7662   6.3438   8.0376   9.7245
    11.6186  13.0302

          k = 0.2000 0.3000-0.5000 (  1898 PWs)   bands (ev):

     0.1838   0.1839   3.6773   3.6774   5.4094   5.4095   8.7991   8.7992
    12.3431  12.3432

          k = 0.2000 0.4000 0.4000 (  1907 PWs)   bands (ev):

     0.0066   1.7697   1.7698   3.5071   5.2383   6.9400   6.9400   8.6345
    12.2035  13.8083

          k = 0.2000 0.4000-0.5000 (  1894 PWs)   bands (ev):

     0.8030   0.8031   2.5558   2.5559   6.0043   6.0044   7.7046   7.7047
    12.9388  12.9389

          k = 0.2000-0.5000-0.5000 (  1900 PWs)   bands (ev):

     1.5949   1.5951   1.5951   1.5952   6.7711   6.7713   6.7713   6.7714
    13.6745  13.6747

          k = 0.3000 0.3000 0.3000 (  1893 PWs)   bands (ev):

    -0.7945   2.7269   2.7269   2.7269   6.1834   6.1835   6.1835   9.5687
    13.0957  13.0957

          k = 0.3000 0.3000 0.4000 (  1895 PWs)   bands (ev):

    -0.1710   1.5944   3.3320   3.3320   5.0783   5.0783   6.7807   8.4775
    13.6560  13.6561

          k = 0.3000 0.3000-0.5000 (  1898 PWs)   bands (ev):

     0.6264   0.6265   3.9946   3.9948   4.2481   4.2483   7.5464   7.5466
    14.1914  14.6026

          k = 0.3000 0.4000 0.4000 (  1887 PWs)   bands (ev):

     0.4498   2.2072   2.2072   3.8270   4.0733   5.6754   5.6754   7.3805
    14.2343  15.6518

          k = 0.3000 0.4000-0.5000 (  1890 PWs)   bands (ev):

     1.2438   1.2439   2.9887   2.9888   4.7349   4.7350   6.4446   6.4447
    14.9392  14.9393

          k = 0.3000-0.5000-0.5000 (  1900 PWs)   bands (ev):

     2.0330   2.0331   2.0331   2.0332   5.5049   5.5051   5.5051   5.5052
    15.6527  15.6528

          k = 0.4000 0.4000 0.4000 (  1884 PWs)   bands (ev):

     1.0680   2.8154   2.8154   2.8155   4.5651   4.5651   4.5651   6.2774
    16.3771  16.3771

          k = 0.4000 0.4000-0.5000 (  1900 PWs)   bands (ev):

     1.8583   1.8584   3.4914   3.4915   3.7211   3.7212   5.3364   5.3365
    17.1139  17.1141

          k = 0.4000-0.5000-0.5000 (  1888 PWs)   bands (ev):

     2.6424   2.6425   2.6425   2.6426   4.3929   4.3931   4.3931   4.3932
    17.6648  17.6649

          k =-0.5000-0.5000-0.5000 (  1904 PWs)   bands (ev):

     3.3234   3.3234   3.3234   3.3236   3.5436   3.5439   3.5439   3.5439
    19.3614  19.3616

     the Fermi energy is     7.9583 ev

!    total energy              =    -158.01043386 Ry
     Harris-Foulkes estimate   =    -158.01043388 Ry
     estimated scf accuracy    <          3.7E-09 Ry

     total all-electron energy =     -1942.581560 Ry

     The total energy is the sum of the following terms:

     one-electron contribution =      12.68066391 Ry
     hartree contribution      =       0.02324735 Ry
     xc contribution           =     -10.36701748 Ry
     ewald contribution        =     -21.62765902 Ry
     one-center paw contrib.   =    -138.71827859 Ry
     smearing contrib. (-TS)   =      -0.00139003 Ry

     convergence has been achieved in   5 iterations

     Writing output data file al.save/
 
     init_run     :      0.84s CPU      0.89s WALL (       1 calls)
     electrons    :      6.76s CPU      7.00s WALL (       1 calls)

     Called by init_run:
     wfcinit      :      0.29s CPU      0.30s WALL (       1 calls)
     potinit      :      0.27s CPU      0.27s WALL (       1 calls)
     hinit0       :      0.10s CPU      0.12s WALL (       1 calls)

     Called by electrons:
     c_bands      :      4.32s CPU      4.48s WALL (       6 calls)
     sum_band     :      0.94s CPU      0.97s WALL (       6 calls)
     v_of_rho     :      0.13s CPU      0.14s WALL (       6 calls)
     newd         :      0.23s CPU      0.25s WALL (       6 calls)
     PAW_pot      :      1.39s CPU      1.43s WALL (       6 calls)
     mix_rho      :      0.02s CPU      0.02s WALL (       6 calls)

     Called by c_bands:
     init_us_2    :      0.31s CPU      0.32s WALL (     728 calls)
     cegterg      :      2.99s CPU      3.11s WALL (     336 calls)

     Called by sum_band:
     sum_band:bec :      0.01s CPU      0.01s WALL (     336 calls)
     addusdens    :      0.27s CPU      0.29s WALL (       6 calls)

     Called by *egterg:
     h_psi        :      2.38s CPU      2.49s WALL (    1220 calls)
     s_psi        :      0.21s CPU      0.22s WALL (    1220 calls)
     g_psi        :      0.01s CPU      0.01s WALL (     828 calls)
     cdiaghg      :      0.21s CPU      0.22s WALL (    1108 calls)

     Called by h_psi:
     h_psi:pot    :      2.36s CPU      2.46s WALL (    1220 calls)
     h_psi:calbec :      0.39s CPU      0.41s WALL (    1220 calls)
     vloc_psi     :      1.68s CPU      1.75s WALL (    1220 calls)
     add_vuspsi   :      0.28s CPU      0.29s WALL (    1220 calls)

     General routines
     calbec       :      0.51s CPU      0.53s WALL (    1556 calls)
     fft          :      0.09s CPU      0.11s WALL (      77 calls)
     ffts         :      0.00s CPU      0.00s WALL (      12 calls)
     fftw         :      1.66s CPU      1.72s WALL (   22504 calls)
     interpolate  :      0.01s CPU      0.01s WALL (       6 calls)
 
     Parallel routines
     fft_scatt_xy :      0.32s CPU      0.33s WALL (   22593 calls)
     fft_scatt_yz :      0.58s CPU      0.61s WALL (   22593 calls)
 
     PWSCF        :      8.63s CPU      8.96s WALL

 
   This run was terminated on:  20:21:35  29Jul2019            

=------------------------------------------------------------------------------=
   JOB DONE.
=------------------------------------------------------------------------------=
