
     Program PWSCF v.6.4.1 starts on 29Jul2019 at 20:21:44 

     This program is part of the open-source Quantum ESPRESSO suite
     for quantum simulation of materials; please cite
         "P. Giannozzi et al., J. Phys.:Condens. Matter 21 395502 (2009);
         "P. Giannozzi et al., J. Phys.:Condens. Matter 29 465901 (2017);
          URL http://www.quantum-espresso.org", 
     in publications or presentations arising from this work. More details at
     http://www.quantum-espresso.org/quote

     Parallel version (MPI), running on     4 processors

     MPI processes distributed on     1 nodes
     R & G space division:  proc/nbgrp/npool/nimage =       4
     Reading input from al.2_nscf.in

     Current dimensions of program PWSCF are:
     Max number of different atomic species (ntypx) = 10
     Max number of k-points (npk) =  40000
     Max angular momentum in pseudopotentials (lmaxx) =  3

     Atomic positions and unit cell read from directory:
     ./outdir/al.save/
 
               file Al.pbe-n-kjpaw_psl.1.0.0.UPF: wavefunction(s)  3S 3P renormalized

     Subspace diagonalization in iterative solution of the eigenvalue problem:
     a serial algorithm will be used

     Found symmetry operation: I + ( -0.5000  0.0000 -0.5000)
     This is a supercell, fractional translations are disabled
 
     Parallelization info
     --------------------
     sticks:   dense  smooth     PW     G-vecs:    dense   smooth      PW
     Min         370     187     58                10750     3817     650
     Max         371     188     59                10753     3820     651
     Sum        1481     749    233                43003    15275    2601
 


     bravais-lattice index     =            1
     lattice parameter (alat)  =       7.6317  a.u.
     unit-cell volume          =     444.4857 (a.u.)^3
     number of atoms/cell      =            4
     number of atomic types    =            1
     number of electrons       =        12.00
     number of Kohn-Sham states=           10
     kinetic-energy cutoff     =      40.0000  Ry
     charge density cutoff     =     320.0000  Ry
     Exchange-correlation      = SLA PW PBX PBC ( 1  4  3  4 0 0)

     celldm(1)=   7.631664  celldm(2)=   0.000000  celldm(3)=   0.000000
     celldm(4)=   0.000000  celldm(5)=   0.000000  celldm(6)=   0.000000

     crystal axes: (cart. coord. in units of alat)
               a(1) = (   1.000000   0.000000   0.000000 )  
               a(2) = (   0.000000   1.000000   0.000000 )  
               a(3) = (   0.000000   0.000000   1.000000 )  

     reciprocal axes: (cart. coord. in units 2 pi/alat)
               b(1) = (  1.000000  0.000000  0.000000 )  
               b(2) = (  0.000000  1.000000  0.000000 )  
               b(3) = (  0.000000  0.000000  1.000000 )  


     PseudoPot. # 1 for Al read from file:
     /home/bngjn/qe/SSSP_precision_pseudos/Al.pbe-n-kjpaw_psl.1.0.0.UPF
     MD5 check sum: cfc449ca30b5f3223ec38ddd88ac046d
     Pseudo is Projector augmented-wave + core cor, Zval =  3.0
     Generated using "atomic" code by A. Dal Corso v.5.1
     Shape of augmentation charge: PSQ
     Using radial grid of 1135 points,  6 beta functions with: 
                l(1) =   0
                l(2) =   0
                l(3) =   1
                l(4) =   1
                l(5) =   2
                l(6) =   2
     Q(r) pseudized with 0 coefficients 


     atomic species   valence    mass     pseudopotential
        Al             3.00    26.98154     Al( 1.00)

     48 Sym. Ops., with inversion, found



   Cartesian axes

     site n.     atom                  positions (alat units)
         1           Al  tau(   1) = (   0.0000000   0.0000000   0.0000000  )
         2           Al  tau(   2) = (   0.5000000   0.0000000   0.5000000  )
         3           Al  tau(   3) = (   0.5000000   0.5000000   0.0000000  )
         4           Al  tau(   4) = (   0.0000000   0.5000000   0.5000000  )

     number of k points=   286  gaussian smearing, width (Ry)=  0.0100

     Number of k-points >= 100: set verbosity='high' to print them.

     Dense  grid:    43003 G-vectors     FFT dimensions: (  45,  45,  45)

     Smooth grid:    15275 G-vectors     FFT dimensions: (  32,  32,  32)

     Estimated max dynamical RAM per process >      36.61 MB

     Estimated total dynamical RAM >     146.46 MB

     The potential is recalculated from file :
     ./outdir/al.save/charge-density

     Starting wfcs are   16 randomized atomic wfcs
     Checking if some PAW data can be deallocated... 

     Band Structure Calculation
     Davidson diagonalization with overlap

     ethr =  8.33E-11,  avg # of iterations = 22.7

     total cpu time spent up to now is       21.6 secs

     End of band structure calculation

     Number of k-points >= 100: set verbosity='high' to print the bands.

     the Fermi energy is     7.9411 ev

     Writing output data file al.save/
 
     init_run     :      0.55s CPU      0.59s WALL (       1 calls)
     electrons    :     19.32s CPU     19.94s WALL (       1 calls)

     Called by init_run:
     wfcinit      :      0.00s CPU      0.00s WALL (       1 calls)
     potinit      :      0.25s CPU      0.26s WALL (       1 calls)
     hinit0       :      0.11s CPU      0.13s WALL (       1 calls)

     Called by electrons:
     c_bands      :     19.32s CPU     19.94s WALL (       1 calls)
     v_of_rho     :      0.02s CPU      0.02s WALL (       1 calls)
     newd         :      0.04s CPU      0.05s WALL (       1 calls)
     PAW_pot      :      0.23s CPU      0.24s WALL (       1 calls)

     Called by c_bands:
     init_us_2    :      0.12s CPU      0.13s WALL (     286 calls)
     cegterg      :     16.84s CPU     17.39s WALL (     434 calls)

     Called by sum_band:

     Called by *egterg:
     h_psi        :     12.08s CPU     12.49s WALL (    7215 calls)
     s_psi        :      1.09s CPU      1.13s WALL (    7215 calls)
     g_psi        :      0.09s CPU      0.09s WALL (    6495 calls)
     cdiaghg      :      1.65s CPU      1.70s WALL (    6781 calls)

     Called by h_psi:
     h_psi:pot    :     11.96s CPU     12.35s WALL (    7215 calls)
     h_psi:calbec :      2.17s CPU      2.24s WALL (    7215 calls)
     vloc_psi     :      8.17s CPU      8.45s WALL (    7215 calls)
     add_vuspsi   :      1.56s CPU      1.61s WALL (    7215 calls)

     General routines
     calbec       :      2.14s CPU      2.22s WALL (    7215 calls)
     fft          :      0.01s CPU      0.04s WALL (      13 calls)
     ffts         :      0.00s CPU      0.00s WALL (       1 calls)
     fftw         :      6.72s CPU      6.95s WALL (   90836 calls)
     interpolate  :      0.00s CPU      0.00s WALL (       1 calls)
     davcio       :      0.03s CPU      0.04s WALL (     572 calls)
 
     Parallel routines
     fft_scatt_xy :      1.23s CPU      1.27s WALL (   90850 calls)
     fft_scatt_yz :      2.23s CPU      2.32s WALL (   90850 calls)
 
     PWSCF        :     21.04s CPU     21.82s WALL

 
   This run was terminated on:  20:22: 6  29Jul2019            

=------------------------------------------------------------------------------=
   JOB DONE.
=------------------------------------------------------------------------------=
