
     Program PROJWFC v.6.4.1 starts on 29Jul2019 at 20:24:16 

     This program is part of the open-source Quantum ESPRESSO suite
     for quantum simulation of materials; please cite
         "P. Giannozzi et al., J. Phys.:Condens. Matter 21 395502 (2009);
         "P. Giannozzi et al., J. Phys.:Condens. Matter 29 465901 (2017);
          URL http://www.quantum-espresso.org", 
     in publications or presentations arising from this work. More details at
     http://www.quantum-espresso.org/quote

     Parallel version (MPI), running on     4 processors

     MPI processes distributed on     1 nodes
     R & G space division:  proc/nbgrp/npool/nimage =       4

     Reading data from directory:
     ./outdir/al.save/

     IMPORTANT: XC functional enforced from input :
     Exchange-correlation      = PBE ( 1  4  3  4 0 0)
     Any further DFT definition will be discarded
     Please, verify this is what you really want

               file Al.pbe-n-kjpaw_psl.1.0.0.UPF: wavefunction(s)  3S 3P renormalized
 
     Parallelization info
     --------------------
     sticks:   dense  smooth     PW     G-vecs:    dense   smooth      PW
     Min         370     187     58                10750     3817     650
     Max         371     188     59                10753     3820     651
     Sum        1481     749    233                43003    15275    2601
 

     Gaussian broadening (read from file): ngauss,degauss=   0    0.010000


     Calling projwave .... 

     Atomic states used for projection
     (read from pseudopotential files):

     state #   1: atom   1 (Al ), wfc  1 (l=0 m= 1)
     state #   2: atom   1 (Al ), wfc  2 (l=1 m= 1)
     state #   3: atom   1 (Al ), wfc  2 (l=1 m= 2)
     state #   4: atom   1 (Al ), wfc  2 (l=1 m= 3)
     state #   5: atom   2 (Al ), wfc  1 (l=0 m= 1)
     state #   6: atom   2 (Al ), wfc  2 (l=1 m= 1)
     state #   7: atom   2 (Al ), wfc  2 (l=1 m= 2)
     state #   8: atom   2 (Al ), wfc  2 (l=1 m= 3)
     state #   9: atom   3 (Al ), wfc  1 (l=0 m= 1)
     state #  10: atom   3 (Al ), wfc  2 (l=1 m= 1)
     state #  11: atom   3 (Al ), wfc  2 (l=1 m= 2)
     state #  12: atom   3 (Al ), wfc  2 (l=1 m= 3)
     state #  13: atom   4 (Al ), wfc  1 (l=0 m= 1)
     state #  14: atom   4 (Al ), wfc  2 (l=1 m= 1)
     state #  15: atom   4 (Al ), wfc  2 (l=1 m= 2)
     state #  16: atom   4 (Al ), wfc  2 (l=1 m= 3)

 k =   0.0000000000  0.0000000000  0.0000000000
==== e(   1) =    -3.22551 eV ==== 
     psi = 0.250*[#   1]+0.250*[#   5]+0.250*[#   9]+0.250*[#  13]+
    |psi|^2 = 1.000
==== e(   2) =     4.99717 eV ==== 
     psi = 0.083*[#   2]+0.083*[#   3]+0.083*[#   4]+0.083*[#   6]+0.083*[#   7]+
          +0.083*[#   8]+0.083*[#  10]+0.083*[#  11]+0.083*[#  12]+0.083*[#  14]+
          +0.083*[#  15]+0.083*[#  16]+
    |psi|^2 = 0.999
==== e(   3) =     4.99717 eV ==== 
     psi = 0.083*[#   2]+0.083*[#   3]+0.083*[#   4]+0.083*[#   6]+0.083*[#   7]+
          +0.083*[#   8]+0.083*[#  10]+0.083*[#  11]+0.083*[#  12]+0.083*[#  14]+
          +0.083*[#  15]+0.083*[#  16]+
    |psi|^2 = 0.999
==== e(   4) =     4.99717 eV ==== 
     psi = 0.083*[#   2]+0.083*[#   3]+0.083*[#   4]+0.083*[#   6]+0.083*[#   7]+
          +0.083*[#   8]+0.083*[#  10]+0.083*[#  11]+0.083*[#  12]+0.083*[#  14]+
          +0.083*[#  15]+0.083*[#  16]+
    |psi|^2 = 0.999
==== e(   5) =     6.32553 eV ==== 
     psi = 0.644*[#   1]+0.072*[#   5]+0.072*[#   9]+0.072*[#  13]+
    |psi|^2 = 0.859
==== e(   6) =     6.32554 eV ==== 
     psi = 0.286*[#   5]+0.286*[#   9]+0.286*[#  13]+
    |psi|^2 = 0.859
==== e(   7) =     6.32554 eV ==== 
     psi = 0.286*[#   5]+0.286*[#   9]+0.286*[#  13]+
    |psi|^2 = 0.859
==== e(   8) =    13.18441 eV ==== 
     psi = 
    |psi|^2 = 0.000
==== e(   9) =    13.18441 eV ==== 
     psi = 
    |psi|^2 = 0.000
==== e(  10) =    13.18441 eV ==== 
     psi = 
    |psi|^2 = 0.000

 k =   0.0000000000  0.0000000000  0.0500000000
==== e(   1) =    -3.20277 eV ==== 
     psi = 0.242*[#   1]+0.242*[#   5]+0.242*[#   9]+0.242*[#  13]+0.002*[#   2]+
          +0.002*[#   3]+0.002*[#   4]+0.002*[#   6]+0.002*[#   7]+0.002*[#   8]+
          +0.002*[#  10]+0.002*[#  11]+0.002*[#  12]+0.002*[#  14]+0.002*[#  15]+
          +0.002*[#  16]+
    |psi|^2 = 1.000
==== e(   2) =     4.59028 eV ==== 
     psi = 0.069*[#   2]+0.069*[#   3]+0.069*[#   4]+0.069*[#   6]+0.069*[#   7]+
          +0.069*[#   8]+0.069*[#  10]+0.069*[#  11]+0.069*[#  12]+0.069*[#  14]+
          +0.069*[#  15]+0.069*[#  16]+0.040*[#   1]+0.040*[#   5]+0.040*[#   9]+
          +0.040*[#  13]+
    |psi|^2 = 0.987
==== e(   3) =     5.01793 eV ==== 
     psi = 0.083*[#   2]+0.083*[#   3]+0.083*[#   4]+0.083*[#   6]+0.083*[#   7]+
          +0.083*[#   8]+0.083*[#  10]+0.083*[#  11]+0.083*[#  12]+0.083*[#  14]+
          +0.083*[#  15]+0.083*[#  16]+
    |psi|^2 = 0.999
==== e(   4) =     5.01793 eV ==== 
     psi = 0.083*[#   2]+0.083*[#   3]+0.083*[#   4]+0.083*[#   6]+0.083*[#   7]+
          +0.083*[#   8]+0.083*[#  10]+0.083*[#  11]+0.083*[#  12]+0.083*[#  14]+
          +0.083*[#  15]+0.083*[#  16]+
    |psi|^2 = 0.999
==== e(   5) =     6.34748 eV ==== 
     psi = 0.425*[#   1]+0.142*[#   5]+0.142*[#   9]+0.142*[#  13]+0.002*[#   2]+
          +0.002*[#   3]+0.002*[#   4]+0.002*[#   8]+0.002*[#  10]+0.002*[#  15]+
    |psi|^2 = 0.861
==== e(   6) =     6.34749 eV ==== 
     psi = 0.283*[#   5]+0.283*[#   9]+0.283*[#  13]+0.002*[#   6]+0.002*[#   7]+
          +0.002*[#  11]+0.002*[#  12]+0.002*[#  14]+0.002*[#  16]+
    |psi|^2 = 0.861
==== e(   7) =     6.77172 eV ==== 
     psi = 0.174*[#   1]+0.174*[#   5]+0.174*[#   9]+0.174*[#  13]+0.014*[#   2]+
          +0.014*[#   3]+0.014*[#   4]+0.014*[#   6]+0.014*[#   7]+0.014*[#   8]+
          +0.014*[#  10]+0.014*[#  11]+0.014*[#  12]+0.014*[#  14]+0.014*[#  15]+
          +0.014*[#  16]+
    |psi|^2 = 0.865
==== e(   8) =    12.52429 eV ==== 
     psi = 0.042*[#   2]+0.042*[#   3]+0.042*[#   4]+0.042*[#   6]+0.042*[#   7]+
          +0.042*[#   8]+0.042*[#  10]+0.042*[#  11]+0.042*[#  12]+0.042*[#  14]+
          +0.042*[#  15]+0.042*[#  16]+
    |psi|^2 = 0.506
==== e(   9) =    12.52429 eV ==== 
     psi = 0.042*[#   2]+0.042*[#   3]+0.042*[#   4]+0.042*[#   6]+0.042*[#   7]+
          +0.042*[#   8]+0.042*[#  10]+0.042*[#  11]+0.042*[#  12]+0.042*[#  14]+
          +0.042*[#  15]+0.042*[#  16]+
    |psi|^2 = 0.506
==== e(  10) =    13.20686 eV ==== 
     psi = 
    |psi|^2 = 0.000

 k =   0.0000000000  0.0000000000  0.1000000000
==== e(   1) =    -3.13468 eV ==== 
     psi = 0.223*[#   1]+0.223*[#   5]+0.223*[#   9]+0.223*[#  13]+0.009*[#   2]+
          +0.009*[#   3]+0.009*[#   4]+0.009*[#   6]+0.009*[#   7]+0.009*[#   8]+
          +0.009*[#  10]+0.009*[#  11]+0.009*[#  12]+0.009*[#  14]+0.009*[#  15]+
          +0.009*[#  16]+
    |psi|^2 = 1.000
==== e(   2) =     3.88696 eV ==== 
     psi = 0.063*[#   1]+0.063*[#   5]+0.063*[#   9]+0.063*[#  13]+0.061*[#   2]+
          +0.061*[#   3]+0.061*[#   4]+0.061*[#   6]+0.061*[#   7]+0.061*[#   8]+
          +0.061*[#  10]+0.061*[#  11]+0.061*[#  12]+0.061*[#  14]+0.061*[#  15]+
          +0.061*[#  16]+
    |psi|^2 = 0.985
==== e(   3) =     5.08021 eV ==== 
     psi = 0.083*[#   2]+0.083*[#   3]+0.083*[#   4]+0.083*[#   6]+0.083*[#   7]+
          +0.083*[#   8]+0.083*[#  10]+0.083*[#  11]+0.083*[#  12]+0.083*[#  14]+
          +0.083*[#  15]+0.083*[#  16]+
    |psi|^2 = 0.999
==== e(   4) =     5.08021 eV ==== 
     psi = 0.083*[#   2]+0.083*[#   3]+0.083*[#   4]+0.083*[#   6]+0.083*[#   7]+
          +0.083*[#   8]+0.083*[#  10]+0.083*[#  11]+0.083*[#  12]+0.083*[#  14]+
          +0.083*[#  15]+0.083*[#  16]+
    |psi|^2 = 0.999
==== e(   5) =     6.41321 eV ==== 
     psi = 0.411*[#   1]+0.137*[#   5]+0.137*[#   9]+0.137*[#  13]+0.008*[#   2]+
          +0.008*[#   3]+0.008*[#   4]+0.008*[#   8]+0.008*[#  10]+0.008*[#  15]+
    |psi|^2 = 0.869
==== e(   6) =     6.41322 eV ==== 
     psi = 0.274*[#   5]+0.274*[#   9]+0.274*[#  13]+0.008*[#   6]+0.008*[#   7]+
          +0.008*[#  11]+0.008*[#  12]+0.008*[#  14]+0.008*[#  16]+
    |psi|^2 = 0.869
==== e(   7) =     7.59290 eV ==== 
     psi = 0.148*[#   1]+0.148*[#   5]+0.148*[#   9]+0.148*[#  13]+0.021*[#   2]+
          +0.021*[#   3]+0.021*[#   4]+0.021*[#   6]+0.021*[#   7]+0.021*[#   8]+
          +0.021*[#  10]+0.021*[#  11]+0.021*[#  12]+0.021*[#  14]+0.021*[#  15]+
          +0.021*[#  16]+
    |psi|^2 = 0.847
==== e(   8) =    11.75727 eV ==== 
     psi = 0.055*[#   2]+0.055*[#   3]+0.055*[#   4]+0.055*[#   6]+0.055*[#   7]+
          +0.055*[#   8]+0.055*[#  10]+0.055*[#  11]+0.055*[#  12]+0.055*[#  14]+
          +0.055*[#  15]+0.055*[#  16]+
    |psi|^2 = 0.660
==== e(   9) =    11.75727 eV ==== 
     psi = 0.055*[#   2]+0.055*[#   3]+0.055*[#   4]+0.055*[#   6]+0.055*[#   7]+
          +0.055*[#   8]+0.055*[#  10]+0.055*[#  11]+0.055*[#  12]+0.055*[#  14]+
          +0.055*[#  15]+0.055*[#  16]+
    |psi|^2 = 0.660
==== e(  10) =    12.93847 eV ==== 
     psi = 0.128*[#   6]+0.128*[#   7]+0.128*[#  11]+0.128*[#  12]+0.128*[#  14]+
          +0.128*[#  16]+0.026*[#   5]+0.026*[#   9]+0.026*[#  13]+0.019*[#   2]+
          +0.019*[#   3]+0.019*[#   4]+0.019*[#   8]+0.019*[#  10]+0.019*[#  15]+
          +0.005*[#   1]+
    |psi|^2 = 0.963

 k =   0.0000000000  0.0000000000  0.1500000000
==== e(   1) =    -3.02127 eV ==== 
     psi = 0.197*[#   1]+0.197*[#   5]+0.197*[#   9]+0.197*[#  13]+0.018*[#   2]+
          +0.018*[#   3]+0.018*[#   4]+0.018*[#   6]+0.018*[#   7]+0.018*[#   8]+
          +0.018*[#  10]+0.018*[#  11]+0.018*[#  12]+0.018*[#  14]+0.018*[#  15]+
          +0.018*[#  16]+
    |psi|^2 = 0.999
==== e(   2) =     3.16095 eV ==== 
     psi = 0.071*[#   1]+0.071*[#   5]+0.071*[#   9]+0.071*[#  13]+0.059*[#   2]+
          +0.059*[#   3]+0.059*[#   4]+0.059*[#   6]+0.059*[#   7]+0.059*[#   8]+
          +0.059*[#  10]+0.059*[#  11]+0.059*[#  12]+0.059*[#  14]+0.059*[#  15]+
          +0.059*[#  16]+
    |psi|^2 = 0.989
==== e(   3) =     5.18403 eV ==== 
     psi = 0.083*[#   2]+0.083*[#   3]+0.083*[#   4]+0.083*[#   6]+0.083*[#   7]+
          +0.083*[#   8]+0.083*[#  10]+0.083*[#  11]+0.083*[#  12]+0.083*[#  14]+
          +0.083*[#  15]+0.083*[#  16]+
    |psi|^2 = 0.998
==== e(   4) =     5.18403 eV ==== 
     psi = 0.083*[#   2]+0.083*[#   3]+0.083*[#   4]+0.083*[#   6]+0.083*[#   7]+
          +0.083*[#   8]+0.083*[#  10]+0.083*[#  11]+0.083*[#  12]+0.083*[#  14]+
          +0.083*[#  15]+0.083*[#  16]+
    |psi|^2 = 0.998
==== e(   5) =     6.52238 eV ==== 
     psi = 0.390*[#   1]+0.130*[#   5]+0.130*[#   9]+0.130*[#  13]+0.016*[#   2]+
          +0.016*[#   3]+0.016*[#   4]+0.016*[#   8]+0.016*[#  10]+0.016*[#  15]+
    |psi|^2 = 0.880
==== e(   6) =     6.52239 eV ==== 
     psi = 0.260*[#   5]+0.260*[#   9]+0.260*[#  13]+0.016*[#   6]+0.016*[#   7]+
          +0.016*[#  11]+0.016*[#  12]+0.016*[#  14]+0.016*[#  16]+
    |psi|^2 = 0.880
==== e(   7) =     8.51530 eV ==== 
     psi = 0.135*[#   1]+0.135*[#   5]+0.135*[#   9]+0.135*[#  13]+0.023*[#   2]+
          +0.023*[#   3]+0.023*[#   4]+0.023*[#   6]+0.023*[#   7]+0.023*[#   8]+
          +0.023*[#  10]+0.023*[#  11]+0.023*[#  12]+0.023*[#  14]+0.023*[#  15]+
          +0.023*[#  16]+
    |psi|^2 = 0.812
==== e(   8) =    11.02647 eV ==== 
     psi = 0.064*[#   2]+0.064*[#   3]+0.064*[#   4]+0.064*[#   6]+0.064*[#   7]+
          +0.064*[#   8]+0.064*[#  10]+0.064*[#  11]+0.064*[#  12]+0.064*[#  14]+
          +0.064*[#  15]+0.064*[#  16]+
    |psi|^2 = 0.763
==== e(   9) =    11.02647 eV ==== 
     psi = 0.064*[#   2]+0.064*[#   3]+0.064*[#   4]+0.064*[#   6]+0.064*[#   7]+
          +0.064*[#   8]+0.064*[#  10]+0.064*[#  11]+0.064*[#  12]+0.064*[#  14]+
          +0.064*[#  15]+0.064*[#  16]+
    |psi|^2 = 0.763
==== e(  10) =    12.39209 eV ==== 
     psi = 0.069*[#   2]+0.069*[#   3]+0.069*[#   4]+0.069*[#   8]+0.069*[#  10]+
          +0.069*[#  15]+0.066*[#   6]+0.066*[#   7]+0.066*[#  11]+0.066*[#  12]+
          +0.066*[#  14]+0.066*[#  16]+0.039*[#   1]+0.038*[#   5]+0.038*[#   9]+
          +0.038*[#  13]+
    |psi|^2 = 0.958

 k =   0.0000000000  0.0000000000  0.2000000000
==== e(   1) =    -2.86265 eV ==== 
     psi = 0.171*[#   1]+0.171*[#   5]+0.171*[#   9]+0.171*[#  13]+0.026*[#   2]+
          +0.026*[#   3]+0.026*[#   4]+0.026*[#   6]+0.026*[#   7]+0.026*[#   8]+
          +0.026*[#  10]+0.026*[#  11]+0.026*[#  12]+0.026*[#  14]+0.026*[#  15]+
          +0.026*[#  16]+
    |psi|^2 = 0.999
==== e(   2) =     2.45671 eV ==== 
     psi = 0.074*[#   1]+0.074*[#   5]+0.074*[#   9]+0.074*[#  13]+0.058*[#   2]+
          +0.058*[#   3]+0.058*[#   4]+0.058*[#   6]+0.058*[#   7]+0.058*[#   8]+
          +0.058*[#  10]+0.058*[#  11]+0.058*[#  12]+0.058*[#  14]+0.058*[#  15]+
          +0.058*[#  16]+
    |psi|^2 = 0.992
==== e(   3) =     5.32943 eV ==== 
     psi = 0.083*[#   2]+0.083*[#   3]+0.083*[#   4]+0.083*[#   6]+0.083*[#   7]+
          +0.083*[#   8]+0.083*[#  10]+0.083*[#  11]+0.083*[#  12]+0.083*[#  14]+
          +0.083*[#  15]+0.083*[#  16]+
    |psi|^2 = 0.997
==== e(   4) =     5.32943 eV ==== 
     psi = 0.083*[#   2]+0.083*[#   3]+0.083*[#   4]+0.083*[#   6]+0.083*[#   7]+
          +0.083*[#   8]+0.083*[#  10]+0.083*[#  11]+0.083*[#  12]+0.083*[#  14]+
          +0.083*[#  15]+0.083*[#  16]+
    |psi|^2 = 0.997
==== e(   5) =     6.67430 eV ==== 
     psi = 0.363*[#   1]+0.121*[#   5]+0.121*[#   9]+0.121*[#  13]+0.028*[#   2]+
          +0.028*[#   3]+0.028*[#   4]+0.028*[#   8]+0.028*[#  10]+0.028*[#  15]+
    |psi|^2 = 0.892
==== e(   6) =     6.67431 eV ==== 
     psi = 0.242*[#   5]+0.242*[#   9]+0.242*[#  13]+0.028*[#   6]+0.028*[#   7]+
          +0.028*[#  11]+0.028*[#  12]+0.028*[#  14]+0.028*[#  16]+
    |psi|^2 = 0.892
==== e(   7) =     9.49430 eV ==== 
     psi = 0.126*[#   1]+0.126*[#   5]+0.126*[#   9]+0.126*[#  13]+0.022*[#   2]+
          +0.022*[#   3]+0.022*[#   4]+0.022*[#   6]+0.022*[#   7]+0.022*[#   8]+
          +0.022*[#  10]+0.022*[#  11]+0.022*[#  12]+0.022*[#  14]+0.022*[#  15]+
          +0.022*[#  16]+
    |psi|^2 = 0.767
==== e(   8) =    10.33643 eV ==== 
     psi = 0.070*[#   2]+0.070*[#   3]+0.070*[#   4]+0.070*[#   6]+0.070*[#   7]+
          +0.070*[#   8]+0.070*[#  10]+0.070*[#  11]+0.070*[#  12]+0.070*[#  14]+
          +0.070*[#  15]+0.070*[#  16]+
    |psi|^2 = 0.838
==== e(   9) =    10.33643 eV ==== 
     psi = 0.070*[#   2]+0.070*[#   3]+0.070*[#   4]+0.070*[#   6]+0.070*[#   7]+
          +0.070*[#   8]+0.070*[#  10]+0.070*[#  11]+0.070*[#  12]+0.070*[#  14]+
          +0.070*[#  15]+0.070*[#  16]+
    |psi|^2 = 0.838
==== e(  10) =    11.80652 eV ==== 
     psi = 0.066*[#   2]+0.066*[#   3]+0.066*[#   4]+0.066*[#   8]+0.066*[#  10]+
          +0.066*[#  15]+0.061*[#   1]+0.057*[#   6]+0.057*[#   7]+0.057*[#  11]+
          +0.057*[#  12]+0.057*[#  14]+0.057*[#  16]+0.055*[#   5]+0.055*[#   9]+
          +0.055*[#  13]+
    |psi|^2 = 0.961

 k =   0.0000000000  0.0000000000  0.2500000000
==== e(   1) =    -2.65896 eV ==== 
     psi = 0.148*[#   1]+0.148*[#   5]+0.148*[#   9]+0.148*[#  13]+0.034*[#   2]+
          +0.034*[#   3]+0.034*[#   4]+0.034*[#   6]+0.034*[#   7]+0.034*[#   8]+
          +0.034*[#  10]+0.034*[#  11]+0.034*[#  12]+0.034*[#  14]+0.034*[#  15]+
          +0.034*[#  16]+
    |psi|^2 = 0.999
==== e(   2) =     1.78567 eV ==== 
     psi = 0.075*[#   1]+0.075*[#   5]+0.075*[#   9]+0.075*[#  13]+0.058*[#   2]+
          +0.058*[#   3]+0.058*[#   4]+0.058*[#   6]+0.058*[#   7]+0.058*[#   8]+
          +0.058*[#  10]+0.058*[#  11]+0.058*[#  12]+0.058*[#  14]+0.058*[#  15]+
          +0.058*[#  16]+
    |psi|^2 = 0.995
==== e(   3) =     5.51644 eV ==== 
     psi = 0.083*[#   2]+0.083*[#   3]+0.083*[#   4]+0.083*[#   6]+0.083*[#   7]+
          +0.083*[#   8]+0.083*[#  10]+0.083*[#  11]+0.083*[#  12]+0.083*[#  14]+
          +0.083*[#  15]+0.083*[#  16]+
    |psi|^2 = 0.996
==== e(   4) =     5.51644 eV ==== 
     psi = 0.083*[#   2]+0.083*[#   3]+0.083*[#   4]+0.083*[#   6]+0.083*[#   7]+
          +0.083*[#   8]+0.083*[#  10]+0.083*[#  11]+0.083*[#  12]+0.083*[#  14]+
          +0.083*[#  15]+0.083*[#  16]+
    |psi|^2 = 0.996
==== e(   5) =     6.86783 eV ==== 
     psi = 0.329*[#   1]+0.110*[#   5]+0.110*[#   9]+0.110*[#  13]+0.041*[#   2]+
          +0.041*[#   3]+0.041*[#   4]+0.041*[#   8]+0.041*[#  10]+0.041*[#  15]+
    |psi|^2 = 0.905
==== e(   6) =     6.86784 eV ==== 
     psi = 0.219*[#   5]+0.219*[#   9]+0.219*[#  13]+0.041*[#   6]+0.041*[#   7]+
          +0.041*[#  11]+0.041*[#  12]+0.041*[#  14]+0.041*[#  16]+
    |psi|^2 = 0.905
==== e(   7) =     9.68811 eV ==== 
     psi = 0.074*[#   2]+0.074*[#   3]+0.074*[#   4]+0.074*[#   6]+0.074*[#   7]+
          +0.074*[#   8]+0.074*[#  10]+0.074*[#  11]+0.074*[#  12]+0.074*[#  14]+
          +0.074*[#  15]+0.074*[#  16]+
    |psi|^2 = 0.891
==== e(   8) =     9.68811 eV ==== 
     psi = 0.074*[#   2]+0.074*[#   3]+0.074*[#   4]+0.074*[#   6]+0.074*[#   7]+
          +0.074*[#   8]+0.074*[#  10]+0.074*[#  11]+0.074*[#  12]+0.074*[#  14]+
          +0.074*[#  15]+0.074*[#  16]+
    |psi|^2 = 0.891
==== e(   9) =    10.51825 eV ==== 
     psi = 0.117*[#   1]+0.117*[#   5]+0.117*[#   9]+0.117*[#  13]+0.020*[#   2]+
          +0.020*[#   3]+0.020*[#   4]+0.020*[#   6]+0.020*[#   7]+0.020*[#   8]+
          +0.020*[#  10]+0.020*[#  11]+0.020*[#  12]+0.020*[#  14]+0.020*[#  15]+
          +0.020*[#  16]+
    |psi|^2 = 0.713
==== e(  10) =    11.22026 eV ==== 
     psi = 0.088*[#   1]+0.072*[#   5]+0.072*[#   9]+0.072*[#  13]+0.064*[#   2]+
          +0.064*[#   3]+0.064*[#   4]+0.064*[#   8]+0.064*[#  10]+0.064*[#  15]+
          +0.046*[#   6]+0.046*[#   7]+0.046*[#  11]+0.046*[#  12]+0.046*[#  14]+
          +0.046*[#  16]+
    |psi|^2 = 0.965

 k =   0.0000000000  0.0000000000  0.3000000000
==== e(   1) =    -2.41043 eV ==== 
     psi = 0.129*[#   1]+0.129*[#   5]+0.129*[#   9]+0.129*[#  13]+0.040*[#   2]+
          +0.040*[#   3]+0.040*[#   4]+0.040*[#   6]+0.040*[#   7]+0.040*[#   8]+
          +0.040*[#  10]+0.040*[#  11]+0.040*[#  12]+0.040*[#  14]+0.040*[#  15]+
          +0.040*[#  16]+
    |psi|^2 = 0.999
==== e(   2) =     1.15219 eV ==== 
     psi = 0.075*[#   1]+0.075*[#   5]+0.075*[#   9]+0.075*[#  13]+0.058*[#   2]+
          +0.058*[#   3]+0.058*[#   4]+0.058*[#   6]+0.058*[#   7]+0.058*[#   8]+
          +0.058*[#  10]+0.058*[#  11]+0.058*[#  12]+0.058*[#  14]+0.058*[#  15]+
          +0.058*[#  16]+
    |psi|^2 = 0.996
==== e(   3) =     5.74511 eV ==== 
     psi = 0.083*[#   2]+0.083*[#   3]+0.083*[#   4]+0.083*[#   6]+0.083*[#   7]+
          +0.083*[#   8]+0.083*[#  10]+0.083*[#  11]+0.083*[#  12]+0.083*[#  14]+
          +0.083*[#  15]+0.083*[#  16]+
    |psi|^2 = 0.995
==== e(   4) =     5.74511 eV ==== 
     psi = 0.083*[#   2]+0.083*[#   3]+0.083*[#   4]+0.083*[#   6]+0.083*[#   7]+
          +0.083*[#   8]+0.083*[#  10]+0.083*[#  11]+0.083*[#  12]+0.083*[#  14]+
          +0.083*[#  15]+0.083*[#  16]+
    |psi|^2 = 0.995
==== e(   5) =     7.10084 eV ==== 
     psi = 0.289*[#   1]+0.096*[#   5]+0.096*[#   9]+0.096*[#  13]+0.056*[#   2]+
          +0.056*[#   3]+0.056*[#   4]+0.056*[#   8]+0.056*[#  10]+0.056*[#  15]+
    |psi|^2 = 0.917
==== e(   6) =     7.10085 eV ==== 
     psi = 0.193*[#   5]+0.193*[#   9]+0.193*[#  13]+0.056*[#   6]+0.056*[#   7]+
          +0.056*[#  11]+0.056*[#  12]+0.056*[#  14]+0.056*[#  16]+
    |psi|^2 = 0.917
==== e(   7) =     9.08180 eV ==== 
     psi = 0.077*[#   2]+0.077*[#   3]+0.077*[#   4]+0.077*[#   6]+0.077*[#   7]+
          +0.077*[#   8]+0.077*[#  10]+0.077*[#  11]+0.077*[#  12]+0.077*[#  14]+
          +0.077*[#  15]+0.077*[#  16]+
    |psi|^2 = 0.927
==== e(   8) =     9.08180 eV ==== 
     psi = 0.077*[#   2]+0.077*[#   3]+0.077*[#   4]+0.077*[#   6]+0.077*[#   7]+
          +0.077*[#   8]+0.077*[#  10]+0.077*[#  11]+0.077*[#  12]+0.077*[#  14]+
          +0.077*[#  15]+0.077*[#  16]+
    |psi|^2 = 0.927
==== e(   9) =    10.65339 eV ==== 
     psi = 0.197*[#   1]+0.096*[#   2]+0.096*[#   3]+0.096*[#   4]+0.096*[#   8]+
          +0.096*[#  10]+0.096*[#  15]+0.066*[#   5]+0.066*[#   9]+0.066*[#  13]+
    |psi|^2 = 0.970
==== e(  10) =    10.65340 eV ==== 
     psi = 0.131*[#   5]+0.131*[#   9]+0.131*[#  13]+0.096*[#   6]+0.096*[#   7]+
          +0.096*[#  11]+0.096*[#  12]+0.096*[#  14]+0.096*[#  16]+
    |psi|^2 = 0.970

 k =   0.0000000000  0.0000000000  0.3500000000
==== e(   1) =    -2.11728 eV ==== 
     psi = 0.113*[#   1]+0.113*[#   5]+0.113*[#   9]+0.113*[#  13]+0.046*[#   2]+
          +0.046*[#   3]+0.046*[#   4]+0.046*[#   6]+0.046*[#   7]+0.046*[#   8]+
          +0.046*[#  10]+0.046*[#  11]+0.046*[#  12]+0.046*[#  14]+0.046*[#  15]+
          +0.046*[#  16]+
    |psi|^2 = 0.999
==== e(   2) =     0.55847 eV ==== 
     psi = 0.076*[#   1]+0.076*[#   5]+0.076*[#   9]+0.076*[#  13]+0.058*[#   2]+
          +0.058*[#   3]+0.058*[#   4]+0.058*[#   6]+0.058*[#   7]+0.058*[#   8]+
          +0.058*[#  10]+0.058*[#  11]+0.058*[#  12]+0.058*[#  14]+0.058*[#  15]+
          +0.058*[#  16]+
    |psi|^2 = 0.997
==== e(   3) =     6.01549 eV ==== 
     psi = 0.083*[#   2]+0.083*[#   3]+0.083*[#   4]+0.083*[#   6]+0.083*[#   7]+
          +0.083*[#   8]+0.083*[#  10]+0.083*[#  11]+0.083*[#  12]+0.083*[#  14]+
          +0.083*[#  15]+0.083*[#  16]+
    |psi|^2 = 0.994
==== e(   4) =     6.01549 eV ==== 
     psi = 0.083*[#   2]+0.083*[#   3]+0.083*[#   4]+0.083*[#   6]+0.083*[#   7]+
          +0.083*[#   8]+0.083*[#  10]+0.083*[#  11]+0.083*[#  12]+0.083*[#  14]+
          +0.083*[#  15]+0.083*[#  16]+
    |psi|^2 = 0.994
==== e(   5) =     7.36907 eV ==== 
     psi = 0.241*[#   1]+0.080*[#   5]+0.080*[#   9]+0.080*[#  13]+0.074*[#   2]+
          +0.074*[#   3]+0.074*[#   4]+0.074*[#   8]+0.074*[#  10]+0.074*[#  15]+
    |psi|^2 = 0.926
==== e(   6) =     7.36908 eV ==== 
     psi = 0.161*[#   5]+0.161*[#   9]+0.161*[#  13]+0.074*[#   6]+0.074*[#   7]+
          +0.074*[#  11]+0.074*[#  12]+0.074*[#  14]+0.074*[#  16]+
    |psi|^2 = 0.926
==== e(   7) =     8.51760 eV ==== 
     psi = 0.079*[#   2]+0.079*[#   3]+0.079*[#   4]+0.079*[#   6]+0.079*[#   7]+
          +0.079*[#   8]+0.079*[#  10]+0.079*[#  11]+0.079*[#  12]+0.079*[#  14]+
          +0.079*[#  15]+0.079*[#  16]+
    |psi|^2 = 0.951
==== e(   8) =     8.51760 eV ==== 
     psi = 0.079*[#   2]+0.079*[#   3]+0.079*[#   4]+0.079*[#   6]+0.079*[#   7]+
          +0.079*[#   8]+0.079*[#  10]+0.079*[#  11]+0.079*[#  12]+0.079*[#  14]+
          +0.079*[#  15]+0.079*[#  16]+
    |psi|^2 = 0.951
==== e(   9) =    10.11945 eV ==== 
     psi = 0.248*[#   1]+0.083*[#   5]+0.083*[#   9]+0.083*[#  13]+0.080*[#   2]+
          +0.080*[#   3]+0.080*[#   4]+0.080*[#   8]+0.080*[#  10]+0.080*[#  15]+
    |psi|^2 = 0.973
==== e(  10) =    10.11946 eV ==== 
     psi = 0.165*[#   5]+0.165*[#   9]+0.165*[#  13]+0.080*[#   6]+0.080*[#   7]+
          +0.080*[#  11]+0.080*[#  12]+0.080*[#  14]+0.080*[#  16]+
    |psi|^2 = 0.973

 k =   0.0000000000  0.0000000000  0.4000000000
==== e(   1) =    -1.77979 eV ==== 
     psi = 0.101*[#   1]+0.101*[#   5]+0.101*[#   9]+0.101*[#  13]+0.050*[#   2]+
          +0.050*[#   3]+0.050*[#   4]+0.050*[#   6]+0.050*[#   7]+0.050*[#   8]+
          +0.050*[#  10]+0.050*[#  11]+0.050*[#  12]+0.050*[#  14]+0.050*[#  15]+
          +0.050*[#  16]+
    |psi|^2 = 0.999
==== e(   2) =     0.00575 eV ==== 
     psi = 0.078*[#   1]+0.078*[#   5]+0.078*[#   9]+0.078*[#  13]+0.057*[#   2]+
          +0.057*[#   3]+0.057*[#   4]+0.057*[#   6]+0.057*[#   7]+0.057*[#   8]+
          +0.057*[#  10]+0.057*[#  11]+0.057*[#  12]+0.057*[#  14]+0.057*[#  15]+
          +0.057*[#  16]+
    |psi|^2 = 0.998
==== e(   3) =     6.32766 eV ==== 
     psi = 0.083*[#   2]+0.083*[#   3]+0.083*[#   4]+0.083*[#   6]+0.083*[#   7]+
          +0.083*[#   8]+0.083*[#  10]+0.083*[#  11]+0.083*[#  12]+0.083*[#  14]+
          +0.083*[#  15]+0.083*[#  16]+
    |psi|^2 = 0.991
==== e(   4) =     6.32766 eV ==== 
     psi = 0.083*[#   2]+0.083*[#   3]+0.083*[#   4]+0.083*[#   6]+0.083*[#   7]+
          +0.083*[#   8]+0.083*[#  10]+0.083*[#  11]+0.083*[#  12]+0.083*[#  14]+
          +0.083*[#  15]+0.083*[#  16]+
    |psi|^2 = 0.991
==== e(   5) =     7.66203 eV ==== 
     psi = 0.177*[#   1]+0.096*[#   2]+0.096*[#   3]+0.096*[#   4]+0.096*[#   8]+
          +0.096*[#  10]+0.096*[#  15]+0.059*[#   5]+0.059*[#   9]+0.059*[#  13]+
    |psi|^2 = 0.933
==== e(   6) =     7.66204 eV ==== 
     psi = 0.118*[#   5]+0.118*[#   9]+0.118*[#  13]+0.096*[#   6]+0.096*[#   7]+
          +0.096*[#  11]+0.096*[#  12]+0.096*[#  14]+0.096*[#  16]+
    |psi|^2 = 0.933
==== e(   7) =     7.99553 eV ==== 
     psi = 0.081*[#   2]+0.081*[#   3]+0.081*[#   4]+0.081*[#   6]+0.081*[#   7]+
          +0.081*[#   8]+0.081*[#  10]+0.081*[#  11]+0.081*[#  12]+0.081*[#  14]+
          +0.081*[#  15]+0.081*[#  16]+
    |psi|^2 = 0.967
==== e(   8) =     7.99553 eV ==== 
     psi = 0.081*[#   2]+0.081*[#   3]+0.081*[#   4]+0.081*[#   6]+0.081*[#   7]+
          +0.081*[#   8]+0.081*[#  10]+0.081*[#  11]+0.081*[#  12]+0.081*[#  14]+
          +0.081*[#  15]+0.081*[#  16]+
    |psi|^2 = 0.967
==== e(   9) =     9.63400 eV ==== 
     psi = 0.314*[#   1]+0.105*[#   5]+0.105*[#   9]+0.105*[#  13]+0.058*[#   2]+
          +0.058*[#   3]+0.058*[#   4]+0.058*[#   8]+0.058*[#  10]+0.058*[#  15]+
    |psi|^2 = 0.976
==== e(  10) =     9.63401 eV ==== 
     psi = 0.209*[#   5]+0.209*[#   9]+0.209*[#  13]+0.058*[#   6]+0.058*[#   7]+
          +0.058*[#  11]+0.058*[#  12]+0.058*[#  14]+0.058*[#  16]+
    |psi|^2 = 0.976

 k =   0.0000000000  0.0000000000  0.4500000000
==== e(   1) =    -1.39832 eV ==== 
     psi = 0.092*[#   1]+0.092*[#   5]+0.092*[#   9]+0.092*[#  13]+0.053*[#   2]+
          +0.053*[#   3]+0.053*[#   4]+0.053*[#   6]+0.053*[#   7]+0.053*[#   8]+
          +0.053*[#  10]+0.053*[#  11]+0.053*[#  12]+0.053*[#  14]+0.053*[#  15]+
          +0.053*[#  16]+
    |psi|^2 = 0.999
==== e(   2) =    -0.50506 eV ==== 
     psi = 0.081*[#   1]+0.081*[#   5]+0.081*[#   9]+0.081*[#  13]+0.056*[#   2]+
          +0.056*[#   3]+0.056*[#   4]+0.056*[#   6]+0.056*[#   7]+0.056*[#   8]+
          +0.056*[#  10]+0.056*[#  11]+0.056*[#  12]+0.056*[#  14]+0.056*[#  15]+
          +0.056*[#  16]+
    |psi|^2 = 0.999
==== e(   3) =     6.68168 eV ==== 
     psi = 0.082*[#   2]+0.082*[#   3]+0.082*[#   4]+0.082*[#   6]+0.082*[#   7]+
          +0.082*[#   8]+0.082*[#  10]+0.082*[#  11]+0.082*[#  12]+0.082*[#  14]+
          +0.082*[#  15]+0.082*[#  16]+
    |psi|^2 = 0.988
==== e(   4) =     6.68168 eV ==== 
     psi = 0.082*[#   2]+0.082*[#   3]+0.082*[#   4]+0.082*[#   6]+0.082*[#   7]+
          +0.082*[#   8]+0.082*[#  10]+0.082*[#  11]+0.082*[#  12]+0.082*[#  14]+
          +0.082*[#  15]+0.082*[#  16]+
    |psi|^2 = 0.988
==== e(   5) =     7.51555 eV ==== 
     psi = 0.081*[#   2]+0.081*[#   3]+0.081*[#   4]+0.081*[#   6]+0.081*[#   7]+
          +0.081*[#   8]+0.081*[#  10]+0.081*[#  11]+0.081*[#  12]+0.081*[#  14]+
          +0.081*[#  15]+0.081*[#  16]+
    |psi|^2 = 0.977
==== e(   6) =     7.51555 eV ==== 
     psi = 0.081*[#   2]+0.081*[#   3]+0.081*[#   4]+0.081*[#   6]+0.081*[#   7]+
          +0.081*[#   8]+0.081*[#  10]+0.081*[#  11]+0.081*[#  12]+0.081*[#  14]+
          +0.081*[#  15]+0.081*[#  16]+
    |psi|^2 = 0.977
==== e(   7) =     7.94568 eV ==== 
     psi = 0.128*[#   2]+0.128*[#   3]+0.128*[#   4]+0.128*[#   8]+0.128*[#  10]+
          +0.128*[#  15]+0.083*[#   1]+0.028*[#   5]+0.028*[#   9]+0.028*[#  13]+
    |psi|^2 = 0.934
==== e(   8) =     7.94569 eV ==== 
     psi = 0.128*[#   6]+0.128*[#   7]+0.128*[#  11]+0.128*[#  12]+0.128*[#  14]+
          +0.128*[#  16]+0.055*[#   5]+0.055*[#   9]+0.055*[#  13]+
    |psi|^2 = 0.934
==== e(   9) =     9.23391 eV ==== 
     psi = 0.409*[#   1]+0.136*[#   5]+0.136*[#   9]+0.136*[#  13]+0.027*[#   2]+
          +0.027*[#   3]+0.027*[#   4]+0.027*[#   8]+0.027*[#  10]+0.027*[#  15]+
    |psi|^2 = 0.980
==== e(  10) =     9.23392 eV ==== 
     psi = 0.273*[#   5]+0.273*[#   9]+0.273*[#  13]+0.027*[#   6]+0.027*[#   7]+
          +0.027*[#  11]+0.027*[#  12]+0.027*[#  14]+0.027*[#  16]+
    |psi|^2 = 0.980

 k =   0.0000000000  0.0000000000 -0.5000000000
==== e(   1) =    -0.97326 eV ==== 
     psi = 0.171*[#   1]+0.110*[#   6]+0.110*[#   7]+0.110*[#  11]+0.110*[#  12]+
          +0.110*[#  14]+0.110*[#  16]+0.057*[#   5]+0.057*[#   9]+0.057*[#  13]+
    |psi|^2 = 0.999
==== e(   2) =    -0.97326 eV ==== 
     psi = 0.114*[#   5]+0.114*[#   9]+0.114*[#  13]+0.110*[#   2]+0.110*[#   3]+
          +0.110*[#   4]+0.110*[#   8]+0.110*[#  10]+0.110*[#  15]+
    |psi|^2 = 0.999
==== e(   3) =     7.07763 eV ==== 
     psi = 0.164*[#   2]+0.164*[#   3]+0.164*[#   4]+0.082*[#   6]+0.082*[#   7]+
          +0.082*[#  11]+0.082*[#  12]+0.082*[#  14]+0.082*[#  16]+
    |psi|^2 = 0.984
==== e(   4) =     7.07763 eV ==== 
     psi = 0.164*[#   2]+0.164*[#   3]+0.164*[#   4]+0.082*[#   6]+0.082*[#   7]+
          +0.082*[#  11]+0.082*[#  12]+0.082*[#  14]+0.082*[#  16]+
    |psi|^2 = 0.984
==== e(   5) =     7.07763 eV ==== 
     psi = 0.164*[#   8]+0.164*[#  10]+0.164*[#  15]+0.082*[#   6]+0.082*[#   7]+
          +0.082*[#  11]+0.082*[#  12]+0.082*[#  14]+0.082*[#  16]+
    |psi|^2 = 0.984
==== e(   6) =     7.07763 eV ==== 
     psi = 0.164*[#   8]+0.164*[#  10]+0.164*[#  15]+0.082*[#   6]+0.082*[#   7]+
          +0.082*[#  11]+0.082*[#  12]+0.082*[#  14]+0.082*[#  16]+
    |psi|^2 = 0.984
==== e(   7) =     8.09264 eV ==== 
     psi = 0.155*[#   2]+0.155*[#   3]+0.155*[#   4]+0.155*[#   8]+0.155*[#  10]+
          +0.155*[#  15]+
    |psi|^2 = 0.932
==== e(   8) =     8.09265 eV ==== 
     psi = 0.155*[#   6]+0.155*[#   7]+0.155*[#  11]+0.155*[#  12]+0.155*[#  14]+
          +0.155*[#  16]+
    |psi|^2 = 0.932
==== e(   9) =     9.04801 eV ==== 
     psi = 0.492*[#   1]+0.164*[#   5]+0.164*[#   9]+0.164*[#  13]+
    |psi|^2 = 0.984
==== e(  10) =     9.04802 eV ==== 
     psi = 0.328*[#   5]+0.328*[#   9]+0.328*[#  13]+
    |psi|^2 = 0.984

 k =   0.0000000000  0.0500000000  0.0500000000
==== e(   1) =    -3.18007 eV ==== 
     psi = 0.236*[#   1]+0.236*[#   5]+0.236*[#   9]+0.236*[#  13]+0.005*[#   2]+
          +0.005*[#   3]+0.005*[#   4]+0.005*[#   6]+0.005*[#   7]+0.005*[#   8]+
          +0.005*[#  10]+0.005*[#  11]+0.005*[#  12]+0.005*[#  14]+0.005*[#  15]+
          +0.005*[#  16]+
    |psi|^2 = 1.000
==== e(   2) =     4.61139 eV ==== 
     psi = 0.079*[#   1]+0.076*[#   8]+0.076*[#  10]+0.076*[#  15]+0.069*[#   6]+
          +0.069*[#   7]+0.069*[#  11]+0.069*[#  12]+0.069*[#  14]+0.069*[#  16]+
          +0.063*[#   2]+0.063*[#   3]+0.063*[#   4]+0.026*[#   5]+0.026*[#   9]+
          +0.026*[#  13]+
    |psi|^2 = 0.987
==== e(   3) =     4.61140 eV ==== 
     psi = 0.076*[#   2]+0.076*[#   3]+0.076*[#   4]+0.069*[#   6]+0.069*[#   7]+
          +0.069*[#  11]+0.069*[#  12]+0.069*[#  14]+0.069*[#  16]+0.063*[#   8]+
          +0.063*[#  10]+0.063*[#  15]+0.053*[#   5]+0.053*[#   9]+0.053*[#  13]+
    |psi|^2 = 0.987
==== e(   4) =     5.03869 eV ==== 
     psi = 0.083*[#   2]+0.083*[#   3]+0.083*[#   4]+0.083*[#   6]+0.083*[#   7]+
          +0.083*[#   8]+0.083*[#  10]+0.083*[#  11]+0.083*[#  12]+0.083*[#  14]+
          +0.083*[#  15]+0.083*[#  16]+
    |psi|^2 = 0.999
==== e(   5) =     6.36939 eV ==== 
     psi = 0.210*[#   1]+0.210*[#   5]+0.210*[#   9]+0.210*[#  13]+0.002*[#   2]+
          +0.002*[#   3]+0.002*[#   4]+0.002*[#   6]+0.002*[#   7]+0.002*[#   8]+
          +0.002*[#  10]+0.002*[#  11]+0.002*[#  12]+0.002*[#  14]+0.002*[#  15]+
          +0.002*[#  16]+
    |psi|^2 = 0.864
==== e(   6) =     6.79327 eV ==== 
     psi = 0.344*[#   1]+0.115*[#   5]+0.115*[#   9]+0.115*[#  13]+0.022*[#   2]+
          +0.022*[#   3]+0.022*[#   4]+0.015*[#   6]+0.015*[#   7]+0.015*[#  11]+
          +0.015*[#  12]+0.015*[#  14]+0.015*[#  16]+0.008*[#   8]+0.008*[#  10]+
          +0.008*[#  15]+
    |psi|^2 = 0.867
==== e(   7) =     6.79328 eV ==== 
     psi = 0.229*[#   5]+0.229*[#   9]+0.229*[#  13]+0.022*[#   8]+0.022*[#  10]+
          +0.022*[#  15]+0.015*[#   6]+0.015*[#   7]+0.015*[#  11]+0.015*[#  12]+
          +0.015*[#  14]+0.015*[#  16]+0.008*[#   2]+0.008*[#   3]+0.008*[#   4]+
    |psi|^2 = 0.867
==== e(   8) =    12.07287 eV ==== 
     psi = 0.052*[#   2]+0.052*[#   3]+0.052*[#   4]+0.052*[#   6]+0.052*[#   7]+
          +0.052*[#   8]+0.052*[#  10]+0.052*[#  11]+0.052*[#  12]+0.052*[#  14]+
          +0.052*[#  15]+0.052*[#  16]+0.005*[#   1]+0.005*[#   5]+0.005*[#   9]+
          +0.005*[#  13]+
    |psi|^2 = 0.643
==== e(   9) =    12.54547 eV ==== 
     psi = 0.084*[#   2]+0.084*[#   3]+0.084*[#   4]+0.084*[#   8]+0.084*[#  10]+
          +0.084*[#  15]+
    |psi|^2 = 0.506
==== e(  10) =    12.54547 eV ==== 
     psi = 0.084*[#   6]+0.084*[#   7]+0.084*[#  11]+0.084*[#  12]+0.084*[#  14]+
          +0.084*[#  16]+
    |psi|^2 = 0.506

 k =   0.0000000000  0.0500000000  0.1000000000
==== e(   1) =    -3.11199 eV ==== 
     psi = 0.217*[#   1]+0.217*[#   5]+0.217*[#   9]+0.217*[#  13]+0.011*[#   2]+
          +0.011*[#   3]+0.011*[#   4]+0.011*[#   6]+0.011*[#   7]+0.011*[#   8]+
          +0.011*[#  10]+0.011*[#  11]+0.011*[#  12]+0.011*[#  14]+0.011*[#  15]+
          +0.011*[#  16]+
    |psi|^2 = 1.000
==== e(   2) =     3.90838 eV ==== 
     psi = 0.063*[#   1]+0.063*[#   5]+0.063*[#   9]+0.063*[#  13]+0.061*[#   2]+
          +0.061*[#   3]+0.061*[#   4]+0.061*[#   6]+0.061*[#   7]+0.061*[#   8]+
          +0.061*[#  10]+0.061*[#  11]+0.061*[#  12]+0.061*[#  14]+0.061*[#  15]+
          +0.061*[#  16]+
    |psi|^2 = 0.985
==== e(   3) =     4.67474 eV ==== 
     psi = 0.069*[#   2]+0.069*[#   3]+0.069*[#   4]+0.069*[#   6]+0.069*[#   7]+
          +0.069*[#   8]+0.069*[#  10]+0.069*[#  11]+0.069*[#  12]+0.069*[#  14]+
          +0.069*[#  15]+0.069*[#  16]+0.039*[#   1]+0.039*[#   5]+0.039*[#   9]+
          +0.039*[#  13]+
    |psi|^2 = 0.987
==== e(   4) =     5.10097 eV ==== 
     psi = 0.083*[#   2]+0.083*[#   3]+0.083*[#   4]+0.083*[#   6]+0.083*[#   7]+
          +0.083*[#   8]+0.083*[#  10]+0.083*[#  11]+0.083*[#  12]+0.083*[#  14]+
          +0.083*[#  15]+0.083*[#  16]+
    |psi|^2 = 0.998
==== e(   5) =     6.43498 eV ==== 
     psi = 0.204*[#   1]+0.204*[#   5]+0.204*[#   9]+0.204*[#  13]+0.005*[#   2]+
          +0.005*[#   3]+0.005*[#   4]+0.005*[#   6]+0.005*[#   7]+0.005*[#   8]+
          +0.005*[#  10]+0.005*[#  11]+0.005*[#  12]+0.005*[#  14]+0.005*[#  15]+
          +0.005*[#  16]+
    |psi|^2 = 0.870
==== e(   6) =     6.85784 eV ==== 
     psi = 0.166*[#   1]+0.166*[#   5]+0.166*[#   9]+0.166*[#  13]+0.017*[#   2]+
          +0.017*[#   3]+0.017*[#   4]+0.017*[#   6]+0.017*[#   7]+0.017*[#   8]+
          +0.017*[#  10]+0.017*[#  11]+0.017*[#  12]+0.017*[#  14]+0.017*[#  15]+
          +0.017*[#  16]+
    |psi|^2 = 0.874
==== e(   7) =     7.61405 eV ==== 
     psi = 0.146*[#   1]+0.146*[#   5]+0.146*[#   9]+0.146*[#  13]+0.022*[#   2]+
          +0.022*[#   3]+0.022*[#   4]+0.022*[#   6]+0.022*[#   7]+0.022*[#   8]+
          +0.022*[#  10]+0.022*[#  11]+0.022*[#  12]+0.022*[#  14]+0.022*[#  15]+
          +0.022*[#  16]+
    |psi|^2 = 0.850
==== e(   8) =    11.36824 eV ==== 
     psi = 0.059*[#   2]+0.059*[#   3]+0.059*[#   4]+0.059*[#   6]+0.059*[#   7]+
          +0.059*[#   8]+0.059*[#  10]+0.059*[#  11]+0.059*[#  12]+0.059*[#  14]+
          +0.059*[#  15]+0.059*[#  16]+0.010*[#   1]+0.010*[#   5]+0.010*[#   9]+
          +0.010*[#  13]+
    |psi|^2 = 0.748
==== e(   9) =    11.77829 eV ==== 
     psi = 0.055*[#   2]+0.055*[#   3]+0.055*[#   4]+0.055*[#   6]+0.055*[#   7]+
          +0.055*[#   8]+0.055*[#  10]+0.055*[#  11]+0.055*[#  12]+0.055*[#  14]+
          +0.055*[#  15]+0.055*[#  16]+
    |psi|^2 = 0.660
==== e(  10) =    12.60898 eV ==== 
     psi = 0.042*[#   2]+0.042*[#   3]+0.042*[#   4]+0.042*[#   6]+0.042*[#   7]+
          +0.042*[#   8]+0.042*[#  10]+0.042*[#  11]+0.042*[#  12]+0.042*[#  14]+
          +0.042*[#  15]+0.042*[#  16]+
    |psi|^2 = 0.508

 k =   0.0000000000  0.0500000000  0.1500000000
==== e(   1) =    -2.99860 eV ==== 
     psi = 0.193*[#   1]+0.193*[#   5]+0.193*[#   9]+0.193*[#  13]+0.019*[#   2]+
          +0.019*[#   3]+0.019*[#   4]+0.019*[#   6]+0.019*[#   7]+0.019*[#   8]+
          +0.019*[#  10]+0.019*[#  11]+0.019*[#  12]+0.019*[#  14]+0.019*[#  15]+
          +0.019*[#  16]+
    |psi|^2 = 0.999
==== e(   2) =     3.18256 eV ==== 
     psi = 0.071*[#   1]+0.071*[#   5]+0.071*[#   9]+0.071*[#  13]+0.059*[#   2]+
          +0.059*[#   3]+0.059*[#   4]+0.059*[#   6]+0.059*[#   7]+0.059*[#   8]+
          +0.059*[#  10]+0.059*[#  11]+0.059*[#  12]+0.059*[#  14]+0.059*[#  15]+
          +0.059*[#  16]+
    |psi|^2 = 0.989
==== e(   3) =     4.78027 eV ==== 
     psi = 0.070*[#   2]+0.070*[#   3]+0.070*[#   4]+0.070*[#   6]+0.070*[#   7]+
          +0.070*[#   8]+0.070*[#  10]+0.070*[#  11]+0.070*[#  12]+0.070*[#  14]+
          +0.070*[#  15]+0.070*[#  16]+0.037*[#   1]+0.037*[#   5]+0.037*[#   9]+
          +0.037*[#  13]+
    |psi|^2 = 0.988
==== e(   4) =     5.20480 eV ==== 
     psi = 0.083*[#   2]+0.083*[#   3]+0.083*[#   4]+0.083*[#   6]+0.083*[#   7]+
          +0.083*[#   8]+0.083*[#  10]+0.083*[#  11]+0.083*[#  12]+0.083*[#  14]+
          +0.083*[#  15]+0.083*[#  16]+
    |psi|^2 = 0.998
==== e(   5) =     6.54384 eV ==== 
     psi = 0.193*[#   1]+0.193*[#   5]+0.193*[#   9]+0.193*[#  13]+0.009*[#   2]+
          +0.009*[#   3]+0.009*[#   4]+0.009*[#   6]+0.009*[#   7]+0.009*[#   8]+
          +0.009*[#  10]+0.009*[#  11]+0.009*[#  12]+0.009*[#  14]+0.009*[#  15]+
          +0.009*[#  16]+
    |psi|^2 = 0.880
==== e(   6) =     6.96509 eV ==== 
     psi = 0.157*[#   1]+0.157*[#   5]+0.157*[#   9]+0.157*[#  13]+0.021*[#   2]+
          +0.021*[#   3]+0.021*[#   4]+0.021*[#   6]+0.021*[#   7]+0.021*[#   8]+
          +0.021*[#  10]+0.021*[#  11]+0.021*[#  12]+0.021*[#  14]+0.021*[#  15]+
          +0.021*[#  16]+
    |psi|^2 = 0.884
==== e(   7) =     8.53604 eV ==== 
     psi = 0.133*[#   1]+0.133*[#   5]+0.133*[#   9]+0.133*[#  13]+0.024*[#   2]+
          +0.024*[#   3]+0.024*[#   4]+0.024*[#   6]+0.024*[#   7]+0.024*[#   8]+
          +0.024*[#  10]+0.024*[#  11]+0.024*[#  12]+0.024*[#  14]+0.024*[#  15]+
          +0.024*[#  16]+
    |psi|^2 = 0.816
==== e(   8) =    10.66133 eV ==== 
     psi = 0.064*[#   2]+0.064*[#   3]+0.064*[#   4]+0.064*[#   6]+0.064*[#   7]+
          +0.064*[#   8]+0.064*[#  10]+0.064*[#  11]+0.064*[#  12]+0.064*[#  14]+
          +0.064*[#  15]+0.064*[#  16]+0.014*[#   1]+0.014*[#   5]+0.014*[#   9]+
          +0.014*[#  13]+
    |psi|^2 = 0.822
==== e(   9) =    11.04744 eV ==== 
     psi = 0.064*[#   2]+0.064*[#   3]+0.064*[#   4]+0.064*[#   6]+0.064*[#   7]+
          +0.064*[#   8]+0.064*[#  10]+0.064*[#  11]+0.064*[#  12]+0.064*[#  14]+
          +0.064*[#  15]+0.064*[#  16]+
    |psi|^2 = 0.763
==== e(  10) =    12.41258 eV ==== 
     psi = 0.067*[#   2]+0.067*[#   3]+0.067*[#   4]+0.067*[#   6]+0.067*[#   7]+
          +0.067*[#   8]+0.067*[#  10]+0.067*[#  11]+0.067*[#  12]+0.067*[#  14]+
          +0.067*[#  15]+0.067*[#  16]+0.039*[#   1]+0.039*[#   5]+0.039*[#   9]+
          +0.039*[#  13]+
    |psi|^2 = 0.959

 k =   0.0000000000  0.0500000000  0.2000000000
==== e(   1) =    -2.84000 eV ==== 
     psi = 0.169*[#   1]+0.169*[#   5]+0.169*[#   9]+0.169*[#  13]+0.027*[#   2]+
          +0.027*[#   3]+0.027*[#   4]+0.027*[#   6]+0.027*[#   7]+0.027*[#   8]+
          +0.027*[#  10]+0.027*[#  11]+0.027*[#  12]+0.027*[#  14]+0.027*[#  15]+
          +0.027*[#  16]+
    |psi|^2 = 0.999
==== e(   2) =     2.47847 eV ==== 
     psi = 0.074*[#   1]+0.074*[#   5]+0.074*[#   9]+0.074*[#  13]+0.058*[#   2]+
          +0.058*[#   3]+0.058*[#   4]+0.058*[#   6]+0.058*[#   7]+0.058*[#   8]+
          +0.058*[#  10]+0.058*[#  11]+0.058*[#  12]+0.058*[#  14]+0.058*[#  15]+
          +0.058*[#  16]+
    |psi|^2 = 0.992
==== e(   3) =     4.92793 eV ==== 
     psi = 0.071*[#   2]+0.071*[#   3]+0.071*[#   4]+0.071*[#   6]+0.071*[#   7]+
          +0.071*[#   8]+0.071*[#  10]+0.071*[#  11]+0.071*[#  12]+0.071*[#  14]+
          +0.071*[#  15]+0.071*[#  16]+0.035*[#   1]+0.035*[#   5]+0.035*[#   9]+
          +0.035*[#  13]+
    |psi|^2 = 0.989
==== e(   4) =     5.35021 eV ==== 
     psi = 0.083*[#   2]+0.083*[#   3]+0.083*[#   4]+0.083*[#   6]+0.083*[#   7]+
          +0.083*[#   8]+0.083*[#  10]+0.083*[#  11]+0.083*[#  12]+0.083*[#  14]+
          +0.083*[#  15]+0.083*[#  16]+
    |psi|^2 = 0.997
==== e(   5) =     6.69517 eV ==== 
     psi = 0.179*[#   1]+0.179*[#   5]+0.179*[#   9]+0.179*[#  13]+0.015*[#   2]+
          +0.015*[#   3]+0.015*[#   4]+0.015*[#   6]+0.015*[#   7]+0.015*[#   8]+
          +0.015*[#  10]+0.015*[#  11]+0.015*[#  12]+0.015*[#  14]+0.015*[#  15]+
          +0.015*[#  16]+
    |psi|^2 = 0.892
==== e(   6) =     7.11437 eV ==== 
     psi = 0.145*[#   1]+0.145*[#   5]+0.145*[#   9]+0.145*[#  13]+0.026*[#   2]+
          +0.026*[#   3]+0.026*[#   4]+0.026*[#   6]+0.026*[#   7]+0.026*[#   8]+
          +0.026*[#  10]+0.026*[#  11]+0.026*[#  12]+0.026*[#  14]+0.026*[#  15]+
          +0.026*[#  16]+
    |psi|^2 = 0.896
==== e(   7) =     9.51455 eV ==== 
     psi = 0.124*[#   1]+0.124*[#   5]+0.124*[#   9]+0.124*[#  13]+0.023*[#   2]+
          +0.023*[#   3]+0.023*[#   4]+0.023*[#   6]+0.023*[#   7]+0.023*[#   8]+
          +0.023*[#  10]+0.023*[#  11]+0.023*[#  12]+0.023*[#  14]+0.023*[#  15]+
          +0.023*[#  16]+
    |psi|^2 = 0.771
==== e(   8) =     9.98320 eV ==== 
     psi = 0.067*[#   2]+0.067*[#   3]+0.067*[#   4]+0.067*[#   6]+0.067*[#   7]+
          +0.067*[#   8]+0.067*[#  10]+0.067*[#  11]+0.067*[#  12]+0.067*[#  14]+
          +0.067*[#  15]+0.067*[#  16]+0.018*[#   1]+0.018*[#   5]+0.018*[#   9]+
          +0.018*[#  13]+
    |psi|^2 = 0.877
==== e(   9) =    10.35738 eV ==== 
     psi = 0.070*[#   2]+0.070*[#   3]+0.070*[#   4]+0.070*[#   6]+0.070*[#   7]+
          +0.070*[#   8]+0.070*[#  10]+0.070*[#  11]+0.070*[#  12]+0.070*[#  14]+
          +0.070*[#  15]+0.070*[#  16]+
    |psi|^2 = 0.838
==== e(  10) =    11.82768 eV ==== 
     psi = 0.061*[#   2]+0.061*[#   3]+0.061*[#   4]+0.061*[#   6]+0.061*[#   7]+
          +0.061*[#   8]+0.061*[#  10]+0.061*[#  11]+0.061*[#  12]+0.061*[#  14]+
          +0.061*[#  15]+0.061*[#  16]+0.057*[#   1]+0.057*[#   5]+0.057*[#   9]+
          +0.057*[#  13]+
    |psi|^2 = 0.961

 k =   0.0000000000  0.0500000000  0.2500000000
==== e(   1) =    -2.63636 eV ==== 
     psi = 0.146*[#   1]+0.146*[#   5]+0.146*[#   9]+0.146*[#  13]+0.035*[#   2]+
          +0.035*[#   3]+0.035*[#   4]+0.035*[#   6]+0.035*[#   7]+0.035*[#   8]+
          +0.035*[#  10]+0.035*[#  11]+0.035*[#  12]+0.035*[#  14]+0.035*[#  15]+
          +0.035*[#  16]+
    |psi|^2 = 0.999
==== e(   2) =     1.80755 eV ==== 
     psi = 0.075*[#   1]+0.075*[#   5]+0.075*[#   9]+0.075*[#  13]+0.058*[#   2]+
          +0.058*[#   3]+0.058*[#   4]+0.058*[#   6]+0.058*[#   7]+0.058*[#   8]+
          +0.058*[#  10]+0.058*[#  11]+0.058*[#  12]+0.058*[#  14]+0.058*[#  15]+
          +0.058*[#  16]+
    |psi|^2 = 0.995
==== e(   3) =     5.11764 eV ==== 
     psi = 0.071*[#   2]+0.071*[#   3]+0.071*[#   4]+0.071*[#   6]+0.071*[#   7]+
          +0.071*[#   8]+0.071*[#  10]+0.071*[#  11]+0.071*[#  12]+0.071*[#  14]+
          +0.071*[#  15]+0.071*[#  16]+0.033*[#   1]+0.033*[#   5]+0.033*[#   9]+
          +0.033*[#  13]+
    |psi|^2 = 0.989
==== e(   4) =     5.53722 eV ==== 
     psi = 0.083*[#   2]+0.083*[#   3]+0.083*[#   4]+0.083*[#   6]+0.083*[#   7]+
          +0.083*[#   8]+0.083*[#  10]+0.083*[#  11]+0.083*[#  12]+0.083*[#  14]+
          +0.083*[#  15]+0.083*[#  16]+
    |psi|^2 = 0.996
==== e(   5) =     6.88734 eV ==== 
     psi = 0.162*[#   1]+0.162*[#   5]+0.162*[#   9]+0.162*[#  13]+0.021*[#   2]+
          +0.021*[#   3]+0.021*[#   4]+0.021*[#   6]+0.021*[#   7]+0.021*[#   8]+
          +0.021*[#  10]+0.021*[#  11]+0.021*[#  12]+0.021*[#  14]+0.021*[#  15]+
          +0.021*[#  16]+
    |psi|^2 = 0.905
==== e(   6) =     7.30448 eV ==== 
     psi = 0.130*[#   1]+0.130*[#   5]+0.130*[#   9]+0.130*[#  13]+0.032*[#   2]+
          +0.032*[#   3]+0.032*[#   4]+0.032*[#   6]+0.032*[#   7]+0.032*[#   8]+
          +0.032*[#  10]+0.032*[#  11]+0.032*[#  12]+0.032*[#  14]+0.032*[#  15]+
          +0.032*[#  16]+
    |psi|^2 = 0.908
==== e(   7) =     9.34238 eV ==== 
     psi = 0.069*[#   2]+0.069*[#   3]+0.069*[#   4]+0.069*[#   6]+0.069*[#   7]+
          +0.069*[#   8]+0.069*[#  10]+0.069*[#  11]+0.069*[#  12]+0.069*[#  14]+
          +0.069*[#  15]+0.069*[#  16]+0.023*[#   1]+0.023*[#   5]+0.023*[#   9]+
          +0.023*[#  13]+
    |psi|^2 = 0.916
==== e(   8) =     9.70903 eV ==== 
     psi = 0.074*[#   2]+0.074*[#   3]+0.074*[#   4]+0.074*[#   6]+0.074*[#   7]+
          +0.074*[#   8]+0.074*[#  10]+0.074*[#  11]+0.074*[#  12]+0.074*[#  14]+
          +0.074*[#  15]+0.074*[#  16]+
    |psi|^2 = 0.890
==== e(   9) =    10.53780 eV ==== 
     psi = 0.115*[#   1]+0.115*[#   5]+0.115*[#   9]+0.115*[#  13]+0.022*[#   2]+
          +0.022*[#   3]+0.022*[#   4]+0.022*[#   6]+0.022*[#   7]+0.022*[#   8]+
          +0.022*[#  10]+0.022*[#  11]+0.022*[#  12]+0.022*[#  14]+0.022*[#  15]+
          +0.022*[#  16]+
    |psi|^2 = 0.717
==== e(  10) =    11.24235 eV ==== 
     psi = 0.078*[#   1]+0.078*[#   5]+0.078*[#   9]+0.078*[#  13]+0.055*[#   2]+
          +0.055*[#   3]+0.055*[#   4]+0.055*[#   6]+0.055*[#   7]+0.055*[#   8]+
          +0.055*[#  10]+0.055*[#  11]+0.055*[#  12]+0.055*[#  14]+0.055*[#  15]+
          +0.055*[#  16]+
    |psi|^2 = 0.966

 k =   0.0000000000  0.0500000000  0.3000000000
==== e(   1) =    -2.38785 eV ==== 
     psi = 0.127*[#   1]+0.127*[#   5]+0.127*[#   9]+0.127*[#  13]+0.041*[#   2]+
          +0.041*[#   3]+0.041*[#   4]+0.041*[#   6]+0.041*[#   7]+0.041*[#   8]+
          +0.041*[#  10]+0.041*[#  11]+0.041*[#  12]+0.041*[#  14]+0.041*[#  15]+
          +0.041*[#  16]+
    |psi|^2 = 0.999
==== e(   2) =     1.17419 eV ==== 
     psi = 0.075*[#   1]+0.075*[#   5]+0.075*[#   9]+0.075*[#  13]+0.058*[#   2]+
          +0.058*[#   3]+0.058*[#   4]+0.058*[#   6]+0.058*[#   7]+0.058*[#   8]+
          +0.058*[#  10]+0.058*[#  11]+0.058*[#  12]+0.058*[#  14]+0.058*[#  15]+
          +0.058*[#  16]+
    |psi|^2 = 0.996
==== e(   3) =     5.34928 eV ==== 
     psi = 0.072*[#   2]+0.072*[#   3]+0.072*[#   4]+0.072*[#   6]+0.072*[#   7]+
          +0.072*[#   8]+0.072*[#  10]+0.072*[#  11]+0.072*[#  12]+0.072*[#  14]+
          +0.072*[#  15]+0.072*[#  16]+0.031*[#   1]+0.031*[#   5]+0.031*[#   9]+
          +0.031*[#  13]+
    |psi|^2 = 0.989
==== e(   4) =     5.76590 eV ==== 
     psi = 0.083*[#   2]+0.083*[#   3]+0.083*[#   4]+0.083*[#   6]+0.083*[#   7]+
          +0.083*[#   8]+0.083*[#  10]+0.083*[#  11]+0.083*[#  12]+0.083*[#  14]+
          +0.083*[#  15]+0.083*[#  16]+
    |psi|^2 = 0.995
==== e(   5) =     7.11664 eV ==== 
     psi = 0.140*[#   1]+0.140*[#   5]+0.140*[#   9]+0.140*[#  13]+0.030*[#   2]+
          +0.030*[#   3]+0.030*[#   4]+0.030*[#   6]+0.030*[#   7]+0.030*[#   8]+
          +0.030*[#  10]+0.030*[#  11]+0.030*[#  12]+0.030*[#  14]+0.030*[#  15]+
          +0.030*[#  16]+
    |psi|^2 = 0.917
==== e(   6) =     7.53312 eV ==== 
     psi = 0.112*[#   1]+0.112*[#   5]+0.112*[#   9]+0.112*[#  13]+0.039*[#   2]+
          +0.039*[#   3]+0.039*[#   4]+0.039*[#   6]+0.039*[#   7]+0.039*[#   8]+
          +0.039*[#  10]+0.039*[#  11]+0.039*[#  12]+0.039*[#  14]+0.039*[#  15]+
          +0.039*[#  16]+
    |psi|^2 = 0.919
==== e(   7) =     8.74400 eV ==== 
     psi = 0.069*[#   2]+0.069*[#   3]+0.069*[#   4]+0.069*[#   6]+0.069*[#   7]+
          +0.069*[#   8]+0.069*[#  10]+0.069*[#  11]+0.069*[#  12]+0.069*[#  14]+
          +0.069*[#  15]+0.069*[#  16]+0.030*[#   1]+0.030*[#   5]+0.030*[#   9]+
          +0.030*[#  13]+
    |psi|^2 = 0.942
==== e(   8) =     9.10270 eV ==== 
     psi = 0.077*[#   2]+0.077*[#   3]+0.077*[#   4]+0.077*[#   6]+0.077*[#   7]+
          +0.077*[#   8]+0.077*[#  10]+0.077*[#  11]+0.077*[#  12]+0.077*[#  14]+
          +0.077*[#  15]+0.077*[#  16]+
    |psi|^2 = 0.926
==== e(   9) =    10.67706 eV ==== 
     psi = 0.100*[#   1]+0.100*[#   5]+0.100*[#   9]+0.100*[#  13]+0.047*[#   2]+
          +0.047*[#   3]+0.047*[#   4]+0.047*[#   6]+0.047*[#   7]+0.047*[#   8]+
          +0.047*[#  10]+0.047*[#  11]+0.047*[#  12]+0.047*[#  14]+0.047*[#  15]+
          +0.047*[#  16]+
    |psi|^2 = 0.970
==== e(  10) =    11.03312 eV ==== 
     psi = 0.074*[#   1]+0.074*[#   5]+0.074*[#   9]+0.074*[#  13]+0.054*[#   2]+
          +0.054*[#   3]+0.054*[#   4]+0.054*[#   6]+0.054*[#   7]+0.054*[#   8]+
          +0.054*[#  10]+0.054*[#  11]+0.054*[#  12]+0.054*[#  14]+0.054*[#  15]+
          +0.054*[#  16]+
    |psi|^2 = 0.948

 k =   0.0000000000  0.0500000000  0.3500000000
==== e(   1) =    -2.09475 eV ==== 
     psi = 0.112*[#   1]+0.112*[#   5]+0.112*[#   9]+0.112*[#  13]+0.046*[#   2]+
          +0.046*[#   3]+0.046*[#   4]+0.046*[#   6]+0.046*[#   7]+0.046*[#   8]+
          +0.046*[#  10]+0.046*[#  11]+0.046*[#  12]+0.046*[#  14]+0.046*[#  15]+
          +0.046*[#  16]+
    |psi|^2 = 0.999
==== e(   2) =     0.58056 eV ==== 
     psi = 0.076*[#   1]+0.076*[#   5]+0.076*[#   9]+0.076*[#  13]+0.058*[#   2]+
          +0.058*[#   3]+0.058*[#   4]+0.058*[#   6]+0.058*[#   7]+0.058*[#   8]+
          +0.058*[#  10]+0.058*[#  11]+0.058*[#  12]+0.058*[#  14]+0.058*[#  15]+
          +0.058*[#  16]+
    |psi|^2 = 0.997
==== e(   3) =     5.62264 eV ==== 
     psi = 0.073*[#   2]+0.073*[#   3]+0.073*[#   4]+0.073*[#   6]+0.073*[#   7]+
          +0.073*[#   8]+0.073*[#  10]+0.073*[#  11]+0.073*[#  12]+0.073*[#  14]+
          +0.073*[#  15]+0.073*[#  16]+0.028*[#   1]+0.028*[#   5]+0.028*[#   9]+
          +0.028*[#  13]+
    |psi|^2 = 0.989
==== e(   4) =     6.03630 eV ==== 
     psi = 0.083*[#   2]+0.083*[#   3]+0.083*[#   4]+0.083*[#   6]+0.083*[#   7]+
          +0.083*[#   8]+0.083*[#  10]+0.083*[#  11]+0.083*[#  12]+0.083*[#  14]+
          +0.083*[#  15]+0.083*[#  16]+
    |psi|^2 = 0.993
==== e(   5) =     7.36923 eV ==== 
     psi = 0.104*[#   1]+0.104*[#   5]+0.104*[#   9]+0.104*[#  13]+0.043*[#   2]+
          +0.043*[#   3]+0.043*[#   4]+0.043*[#   6]+0.043*[#   7]+0.043*[#   8]+
          +0.043*[#  10]+0.043*[#  11]+0.043*[#  12]+0.043*[#  14]+0.043*[#  15]+
          +0.043*[#  16]+
    |psi|^2 = 0.928
==== e(   6) =     7.79508 eV ==== 
     psi = 0.089*[#   1]+0.089*[#   5]+0.089*[#   9]+0.089*[#  13]+0.047*[#   2]+
          +0.047*[#   3]+0.047*[#   4]+0.047*[#   6]+0.047*[#   7]+0.047*[#   8]+
          +0.047*[#  10]+0.047*[#  11]+0.047*[#  12]+0.047*[#  14]+0.047*[#  15]+
          +0.047*[#  16]+
    |psi|^2 = 0.927
==== e(   7) =     8.20048 eV ==== 
     psi = 0.064*[#   2]+0.064*[#   3]+0.064*[#   4]+0.064*[#   6]+0.064*[#   7]+
          +0.064*[#   8]+0.064*[#  10]+0.064*[#  11]+0.064*[#  12]+0.064*[#  14]+
          +0.064*[#  15]+0.064*[#  16]+0.046*[#   1]+0.046*[#   5]+0.046*[#   9]+
          +0.046*[#  13]+
    |psi|^2 = 0.959
==== e(   8) =     8.53849 eV ==== 
     psi = 0.079*[#   2]+0.079*[#   3]+0.079*[#   4]+0.079*[#   6]+0.079*[#   7]+
          +0.079*[#   8]+0.079*[#  10]+0.079*[#  11]+0.079*[#  12]+0.079*[#  14]+
          +0.079*[#  15]+0.079*[#  16]+
    |psi|^2 = 0.950
==== e(   9) =    10.14656 eV ==== 
     psi = 0.127*[#   1]+0.127*[#   5]+0.127*[#   9]+0.127*[#  13]+0.039*[#   2]+
          +0.039*[#   3]+0.039*[#   4]+0.039*[#   6]+0.039*[#   7]+0.039*[#   8]+
          +0.039*[#  10]+0.039*[#  11]+0.039*[#  12]+0.039*[#  14]+0.039*[#  15]+
          +0.039*[#  16]+
    |psi|^2 = 0.974
==== e(  10) =    10.49536 eV ==== 
     psi = 0.094*[#   1]+0.094*[#   5]+0.094*[#   9]+0.094*[#  13]+0.049*[#   2]+
          +0.049*[#   3]+0.049*[#   4]+0.049*[#   6]+0.049*[#   7]+0.049*[#   8]+
          +0.049*[#  10]+0.049*[#  11]+0.049*[#  12]+0.049*[#  14]+0.049*[#  15]+
          +0.049*[#  16]+
    |psi|^2 = 0.958

 k =   0.0000000000  0.0500000000  0.4000000000
==== e(   1) =    -1.75732 eV ==== 
     psi = 0.101*[#   1]+0.101*[#   5]+0.101*[#   9]+0.101*[#  13]+0.050*[#   2]+
          +0.050*[#   3]+0.050*[#   4]+0.050*[#   6]+0.050*[#   7]+0.050*[#   8]+
          +0.050*[#  10]+0.050*[#  11]+0.050*[#  12]+0.050*[#  14]+0.050*[#  15]+
          +0.050*[#  16]+
    |psi|^2 = 0.999
==== e(   2) =     0.02794 eV ==== 
     psi = 0.078*[#   1]+0.078*[#   5]+0.078*[#   9]+0.078*[#  13]+0.057*[#   2]+
          +0.057*[#   3]+0.057*[#   4]+0.057*[#   6]+0.057*[#   7]+0.057*[#   8]+
          +0.057*[#  10]+0.057*[#  11]+0.057*[#  12]+0.057*[#  14]+0.057*[#  15]+
          +0.057*[#  16]+
    |psi|^2 = 0.998
==== e(   3) =     5.93737 eV ==== 
     psi = 0.074*[#   2]+0.074*[#   3]+0.074*[#   4]+0.074*[#   6]+0.074*[#   7]+
          +0.074*[#   8]+0.074*[#  10]+0.074*[#  11]+0.074*[#  12]+0.074*[#  14]+
          +0.074*[#  15]+0.074*[#  16]+0.025*[#   1]+0.025*[#   5]+0.025*[#   9]+
          +0.025*[#  13]+
    |psi|^2 = 0.988
==== e(   4) =     6.34848 eV ==== 
     psi = 0.083*[#   2]+0.083*[#   3]+0.083*[#   4]+0.083*[#   6]+0.083*[#   7]+
          +0.083*[#   8]+0.083*[#  10]+0.083*[#  11]+0.083*[#  12]+0.083*[#  14]+
          +0.083*[#  15]+0.083*[#  16]+
    |psi|^2 = 0.991
==== e(   5) =     7.48634 eV ==== 
     psi = 0.077*[#   2]+0.077*[#   3]+0.077*[#   4]+0.077*[#   6]+0.077*[#   7]+
          +0.077*[#   8]+0.077*[#  10]+0.077*[#  11]+0.077*[#  12]+0.077*[#  14]+
          +0.077*[#  15]+0.077*[#  16]+0.008*[#   1]+0.008*[#   5]+0.008*[#   9]+
          +0.008*[#  13]+
    |psi|^2 = 0.956
==== e(   6) =     7.86517 eV ==== 
     psi = 0.118*[#   1]+0.118*[#   5]+0.118*[#   9]+0.118*[#  13]+0.040*[#   2]+
          +0.040*[#   3]+0.040*[#   4]+0.040*[#   6]+0.040*[#   7]+0.040*[#   8]+
          +0.040*[#  10]+0.040*[#  11]+0.040*[#  12]+0.040*[#  14]+0.040*[#  15]+
          +0.040*[#  16]+
    |psi|^2 = 0.949
==== e(   7) =     8.01640 eV ==== 
     psi = 0.081*[#   2]+0.081*[#   3]+0.081*[#   4]+0.081*[#   6]+0.081*[#   7]+
          +0.081*[#   8]+0.081*[#  10]+0.081*[#  11]+0.081*[#  12]+0.081*[#  14]+
          +0.081*[#  15]+0.081*[#  16]+
    |psi|^2 = 0.966
==== e(   8) =     8.07550 eV ==== 
     psi = 0.058*[#   2]+0.058*[#   3]+0.058*[#   4]+0.058*[#   6]+0.058*[#   7]+
          +0.058*[#   8]+0.058*[#  10]+0.058*[#  11]+0.058*[#  12]+0.058*[#  14]+
          +0.058*[#  15]+0.058*[#  16]+0.057*[#   1]+0.057*[#   5]+0.057*[#   9]+
          +0.057*[#  13]+
    |psi|^2 = 0.931
==== e(   9) =     9.67115 eV ==== 
     psi = 0.163*[#   1]+0.163*[#   5]+0.163*[#   9]+0.163*[#  13]+0.027*[#   2]+
          +0.027*[#   3]+0.027*[#   4]+0.027*[#   6]+0.027*[#   7]+0.027*[#   8]+
          +0.027*[#  10]+0.027*[#  11]+0.027*[#  12]+0.027*[#  14]+0.027*[#  15]+
          +0.027*[#  16]+
    |psi|^2 = 0.978
==== e(  10) =     9.99969 eV ==== 
     psi = 0.119*[#   1]+0.119*[#   5]+0.119*[#   9]+0.119*[#  13]+0.041*[#   2]+
          +0.041*[#   3]+0.041*[#   4]+0.041*[#   6]+0.041*[#   7]+0.041*[#   8]+
          +0.041*[#  10]+0.041*[#  11]+0.041*[#  12]+0.041*[#  14]+0.041*[#  15]+
          +0.041*[#  16]+
    |psi|^2 = 0.965

 k =   0.0000000000  0.0500000000  0.4500000000
==== e(   1) =    -1.37592 eV ==== 
     psi = 0.092*[#   1]+0.092*[#   5]+0.092*[#   9]+0.092*[#  13]+0.053*[#   2]+
          +0.053*[#   3]+0.053*[#   4]+0.053*[#   6]+0.053*[#   7]+0.053*[#   8]+
          +0.053*[#  10]+0.053*[#  11]+0.053*[#  12]+0.053*[#  14]+0.053*[#  15]+
          +0.053*[#  16]+
    |psi|^2 = 0.999
==== e(   2) =    -0.48279 eV ==== 
     psi = 0.081*[#   1]+0.081*[#   5]+0.081*[#   9]+0.081*[#  13]+0.056*[#   2]+
          +0.056*[#   3]+0.056*[#   4]+0.056*[#   6]+0.056*[#   7]+0.056*[#   8]+
          +0.056*[#  10]+0.056*[#  11]+0.056*[#  12]+0.056*[#  14]+0.056*[#  15]+
          +0.056*[#  16]+
    |psi|^2 = 0.999
==== e(   3) =     6.29279 eV ==== 
     psi = 0.075*[#   2]+0.075*[#   3]+0.075*[#   4]+0.075*[#   6]+0.075*[#   7]+
          +0.075*[#   8]+0.075*[#  10]+0.075*[#  11]+0.075*[#  12]+0.075*[#  14]+
          +0.075*[#  15]+0.075*[#  16]+0.021*[#   1]+0.021*[#   5]+0.021*[#   9]+
          +0.021*[#  13]+
    |psi|^2 = 0.986
==== e(   4) =     6.70251 eV ==== 
     psi = 0.082*[#   2]+0.082*[#   3]+0.082*[#   4]+0.082*[#   6]+0.082*[#   7]+
          +0.082*[#   8]+0.082*[#  10]+0.082*[#  11]+0.082*[#  12]+0.082*[#  14]+
          +0.082*[#  15]+0.082*[#  16]+
    |psi|^2 = 0.988
==== e(   5) =     7.11267 eV ==== 
     psi = 0.079*[#   2]+0.079*[#   3]+0.079*[#   4]+0.079*[#   6]+0.079*[#   7]+
          +0.079*[#   8]+0.079*[#  10]+0.079*[#  11]+0.079*[#  12]+0.079*[#  14]+
          +0.079*[#  15]+0.079*[#  16]+0.008*[#   1]+0.008*[#   5]+0.008*[#   9]+
          +0.008*[#  13]+
    |psi|^2 = 0.977
==== e(   6) =     7.53641 eV ==== 
     psi = 0.081*[#   2]+0.081*[#   3]+0.081*[#   4]+0.081*[#   6]+0.081*[#   7]+
          +0.081*[#   8]+0.081*[#  10]+0.081*[#  11]+0.081*[#  12]+0.081*[#  14]+
          +0.081*[#  15]+0.081*[#  16]+
    |psi|^2 = 0.977
==== e(   7) =     8.07601 eV ==== 
     psi = 0.082*[#   1]+0.082*[#   5]+0.082*[#   9]+0.082*[#  13]+0.051*[#   2]+
          +0.051*[#   3]+0.051*[#   4]+0.051*[#   6]+0.051*[#   7]+0.051*[#   8]+
          +0.051*[#  10]+0.051*[#  11]+0.051*[#  12]+0.051*[#  14]+0.051*[#  15]+
          +0.051*[#  16]+
    |psi|^2 = 0.938
==== e(   8) =     8.31624 eV ==== 
     psi = 0.074*[#   2]+0.074*[#   3]+0.074*[#   4]+0.074*[#   6]+0.074*[#   7]+
          +0.074*[#   8]+0.074*[#  10]+0.074*[#  11]+0.074*[#  12]+0.074*[#  14]+
          +0.074*[#  15]+0.074*[#  16]+0.012*[#   1]+0.012*[#   5]+0.012*[#   9]+
          +0.012*[#  13]+
    |psi|^2 = 0.930
==== e(   9) =     9.31257 eV ==== 
     psi = 0.213*[#   1]+0.213*[#   5]+0.213*[#   9]+0.213*[#  13]+0.011*[#   2]+
          +0.011*[#   3]+0.011*[#   4]+0.011*[#   6]+0.011*[#   7]+0.011*[#   8]+
          +0.011*[#  10]+0.011*[#  11]+0.011*[#  12]+0.011*[#  14]+0.011*[#  15]+
          +0.011*[#  16]+
    |psi|^2 = 0.983
==== e(  10) =     9.56648 eV ==== 
     psi = 0.156*[#   1]+0.156*[#   5]+0.156*[#   9]+0.156*[#  13]+0.029*[#   2]+
          +0.029*[#   3]+0.029*[#   4]+0.029*[#   6]+0.029*[#   7]+0.029*[#   8]+
          +0.029*[#  10]+0.029*[#  11]+0.029*[#  12]+0.029*[#  14]+0.029*[#  15]+
          +0.029*[#  16]+
    |psi|^2 = 0.972

 k =   0.0000000000  0.0500000000 -0.5000000000
==== e(   1) =    -0.95092 eV ==== 
     psi = 0.170*[#   1]+0.109*[#   6]+0.109*[#   7]+0.109*[#  11]+0.109*[#  12]+
          +0.109*[#  14]+0.109*[#  16]+0.057*[#   5]+0.057*[#   9]+0.057*[#  13]+
    |psi|^2 = 0.999
==== e(   2) =    -0.95092 eV ==== 
     psi = 0.113*[#   5]+0.113*[#   9]+0.113*[#  13]+0.110*[#   8]+0.110*[#  10]+
          +0.110*[#  15]+0.109*[#   2]+0.109*[#   3]+0.109*[#   4]+
    |psi|^2 = 0.999
==== e(   3) =     6.68706 eV ==== 
     psi = 0.132*[#   2]+0.132*[#   3]+0.132*[#   4]+0.087*[#   6]+0.087*[#   7]+
          +0.087*[#  11]+0.087*[#  12]+0.087*[#  14]+0.087*[#  16]+0.033*[#   1]+
          +0.011*[#   5]+0.011*[#   9]+0.011*[#  13]+
    |psi|^2 = 0.983
==== e(   4) =     6.68706 eV ==== 
     psi = 0.153*[#   8]+0.153*[#  10]+0.153*[#  15]+0.066*[#   6]+0.066*[#   7]+
          +0.066*[#  11]+0.066*[#  12]+0.066*[#  14]+0.066*[#  16]+0.022*[#   5]+
          +0.022*[#   9]+0.022*[#  13]+0.021*[#   2]+0.021*[#   3]+0.021*[#   4]+
    |psi|^2 = 0.983
==== e(   5) =     7.09847 eV ==== 
     psi = 0.164*[#   2]+0.164*[#   3]+0.164*[#   4]+0.082*[#   6]+0.082*[#   7]+
          +0.082*[#  11]+0.082*[#  12]+0.082*[#  14]+0.082*[#  16]+
    |psi|^2 = 0.984
==== e(   6) =     7.09847 eV ==== 
     psi = 0.164*[#   8]+0.164*[#  10]+0.164*[#  15]+0.082*[#   6]+0.082*[#   7]+
          +0.082*[#  11]+0.082*[#  12]+0.082*[#  14]+0.082*[#  16]+
    |psi|^2 = 0.984
==== e(   7) =     8.32318 eV ==== 
     psi = 0.143*[#   8]+0.143*[#  10]+0.143*[#  15]+0.130*[#   2]+0.130*[#   3]+
          +0.130*[#   4]+0.024*[#   5]+0.024*[#   9]+0.024*[#  13]+0.007*[#   6]+
          +0.007*[#   7]+0.007*[#  11]+0.007*[#  12]+0.007*[#  14]+0.007*[#  16]+
    |psi|^2 = 0.932
==== e(   8) =     8.32318 eV ==== 
     psi = 0.136*[#   6]+0.136*[#   7]+0.136*[#  11]+0.136*[#  12]+0.136*[#  14]+
          +0.136*[#  16]+0.036*[#   1]+0.014*[#   2]+0.014*[#   3]+0.014*[#   4]+
          +0.012*[#   5]+0.012*[#   9]+0.012*[#  13]+
    |psi|^2 = 0.932
==== e(   9) =     9.26824 eV ==== 
     psi = 0.422*[#   1]+0.141*[#   5]+0.141*[#   9]+0.141*[#  13]+0.018*[#   2]+
          +0.018*[#   3]+0.018*[#   4]+0.013*[#   6]+0.013*[#   7]+0.013*[#  11]+
          +0.013*[#  12]+0.013*[#  14]+0.013*[#  16]+
    |psi|^2 = 0.981
==== e(  10) =     9.26825 eV ==== 
     psi = 0.282*[#   5]+0.282*[#   9]+0.282*[#  13]+0.023*[#   8]+0.023*[#  10]+
          +0.023*[#  15]+0.009*[#   6]+0.009*[#   7]+0.009*[#  11]+0.009*[#  12]+
          +0.009*[#  14]+0.009*[#  16]+0.004*[#   2]+0.004*[#   3]+0.004*[#   4]+
    |psi|^2 = 0.981

 k =   0.0000000000  0.1000000000  0.1000000000
==== e(   1) =    -3.04394 eV ==== 
     psi = 0.202*[#   1]+0.202*[#   5]+0.202*[#   9]+0.202*[#  13]+0.016*[#   2]+
          +0.016*[#   3]+0.016*[#   4]+0.016*[#   6]+0.016*[#   7]+0.016*[#   8]+
          +0.016*[#  10]+0.016*[#  11]+0.016*[#  12]+0.016*[#  14]+0.016*[#  15]+
          +0.016*[#  16]+
    |psi|^2 = 0.999
==== e(   2) =     3.97262 eV ==== 
     psi = 0.123*[#   1]+0.076*[#   8]+0.076*[#  10]+0.076*[#  15]+0.062*[#   6]+
          +0.062*[#   7]+0.062*[#  11]+0.062*[#  12]+0.062*[#  14]+0.062*[#  16]+
          +0.047*[#   2]+0.047*[#   3]+0.047*[#   4]+0.041*[#   5]+0.041*[#   9]+
          +0.041*[#  13]+
    |psi|^2 = 0.986
==== e(   3) =     3.97262 eV ==== 
     psi = 0.082*[#   5]+0.082*[#   9]+0.082*[#  13]+0.076*[#   2]+0.076*[#   3]+
          +0.076*[#   4]+0.062*[#   6]+0.062*[#   7]+0.062*[#  11]+0.062*[#  12]+
          +0.062*[#  14]+0.062*[#  16]+0.047*[#   8]+0.047*[#  10]+0.047*[#  15]+
    |psi|^2 = 0.986
==== e(   4) =     5.16327 eV ==== 
     psi = 0.083*[#   2]+0.083*[#   3]+0.083*[#   4]+0.083*[#   6]+0.083*[#   7]+
          +0.083*[#   8]+0.083*[#  10]+0.083*[#  11]+0.083*[#  12]+0.083*[#  14]+
          +0.083*[#  15]+0.083*[#  16]+
    |psi|^2 = 0.998
==== e(   5) =     6.50008 eV ==== 
     psi = 0.198*[#   1]+0.198*[#   5]+0.198*[#   9]+0.198*[#  13]+0.007*[#   2]+
          +0.007*[#   3]+0.007*[#   4]+0.007*[#   6]+0.007*[#   7]+0.007*[#   8]+
          +0.007*[#  10]+0.007*[#  11]+0.007*[#  12]+0.007*[#  14]+0.007*[#  15]+
          +0.007*[#  16]+
    |psi|^2 = 0.875
==== e(   6) =     7.67737 eV ==== 
     psi = 0.280*[#   1]+0.093*[#   5]+0.093*[#   9]+0.093*[#  13]+0.041*[#   2]+
          +0.041*[#   3]+0.041*[#   4]+0.025*[#   6]+0.025*[#   7]+0.025*[#  11]+
          +0.025*[#  12]+0.025*[#  14]+0.025*[#  16]+0.008*[#   8]+0.008*[#  10]+
          +0.008*[#  15]+
    |psi|^2 = 0.857
==== e(   7) =     7.67737 eV ==== 
     psi = 0.187*[#   5]+0.187*[#   9]+0.187*[#  13]+0.041*[#   8]+0.041*[#  10]+
          +0.041*[#  15]+0.025*[#   6]+0.025*[#   7]+0.025*[#  11]+0.025*[#  12]+
          +0.025*[#  14]+0.025*[#  16]+0.008*[#   2]+0.008*[#   3]+0.008*[#   4]+
    |psi|^2 = 0.857
==== e(   8) =    10.69748 eV ==== 
     psi = 0.062*[#   2]+0.062*[#   3]+0.062*[#   4]+0.062*[#   6]+0.062*[#   7]+
          +0.062*[#   8]+0.062*[#  10]+0.062*[#  11]+0.062*[#  12]+0.062*[#  14]+
          +0.062*[#  15]+0.062*[#  16]+0.020*[#   1]+0.020*[#   5]+0.020*[#   9]+
          +0.020*[#  13]+
    |psi|^2 = 0.826
==== e(   9) =    11.84136 eV ==== 
     psi = 0.110*[#   2]+0.110*[#   3]+0.110*[#   4]+0.110*[#   8]+0.110*[#  10]+
          +0.110*[#  15]+
    |psi|^2 = 0.661
==== e(  10) =    11.84136 eV ==== 
     psi = 0.110*[#   6]+0.110*[#   7]+0.110*[#  11]+0.110*[#  12]+0.110*[#  14]+
          +0.110*[#  16]+
    |psi|^2 = 0.661

 k =   0.0000000000  0.1000000000  0.1500000000
==== e(   1) =    -2.93061 eV ==== 
     psi = 0.182*[#   1]+0.182*[#   5]+0.182*[#   9]+0.182*[#  13]+0.023*[#   2]+
          +0.023*[#   3]+0.023*[#   4]+0.023*[#   6]+0.023*[#   7]+0.023*[#   8]+
          +0.023*[#  10]+0.023*[#  11]+0.023*[#  12]+0.023*[#  14]+0.023*[#  15]+
          +0.023*[#  16]+
    |psi|^2 = 0.999
==== e(   2) =     3.24738 eV ==== 
     psi = 0.070*[#   1]+0.070*[#   5]+0.070*[#   9]+0.070*[#  13]+0.059*[#   2]+
          +0.059*[#   3]+0.059*[#   4]+0.059*[#   6]+0.059*[#   7]+0.059*[#   8]+
          +0.059*[#  10]+0.059*[#  11]+0.059*[#  12]+0.059*[#  14]+0.059*[#  15]+
          +0.059*[#  16]+
    |psi|^2 = 0.989
==== e(   3) =     4.07962 eV ==== 
     psi = 0.062*[#   2]+0.062*[#   3]+0.062*[#   4]+0.062*[#   6]+0.062*[#   7]+
          +0.062*[#   8]+0.062*[#  10]+0.062*[#  11]+0.062*[#  12]+0.062*[#  14]+
          +0.062*[#  15]+0.062*[#  16]+0.060*[#   1]+0.060*[#   5]+0.060*[#   9]+
          +0.060*[#  13]+
    |psi|^2 = 0.987
==== e(   4) =     5.26711 eV ==== 
     psi = 0.083*[#   2]+0.083*[#   3]+0.083*[#   4]+0.083*[#   6]+0.083*[#   7]+
          +0.083*[#   8]+0.083*[#  10]+0.083*[#  11]+0.083*[#  12]+0.083*[#  14]+
          +0.083*[#  15]+0.083*[#  16]+
    |psi|^2 = 0.998
==== e(   5) =     6.60790 eV ==== 
     psi = 0.187*[#   1]+0.187*[#   5]+0.187*[#   9]+0.187*[#  13]+0.011*[#   2]+
          +0.011*[#   3]+0.011*[#   4]+0.011*[#   6]+0.011*[#   7]+0.011*[#   8]+
          +0.011*[#  10]+0.011*[#  11]+0.011*[#  12]+0.011*[#  14]+0.011*[#  15]+
          +0.011*[#  16]+
    |psi|^2 = 0.883
==== e(   6) =     7.78247 eV ==== 
     psi = 0.131*[#   1]+0.131*[#   5]+0.131*[#   9]+0.131*[#  13]+0.029*[#   2]+
          +0.029*[#   3]+0.029*[#   4]+0.029*[#   6]+0.029*[#   7]+0.029*[#   8]+
          +0.029*[#  10]+0.029*[#  11]+0.029*[#  12]+0.029*[#  14]+0.029*[#  15]+
          +0.029*[#  16]+
    |psi|^2 = 0.869
==== e(   7) =     8.59812 eV ==== 
     psi = 0.127*[#   1]+0.127*[#   5]+0.127*[#   9]+0.127*[#  13]+0.027*[#   2]+
          +0.027*[#   3]+0.027*[#   4]+0.027*[#   6]+0.027*[#   7]+0.027*[#   8]+
          +0.027*[#  10]+0.027*[#  11]+0.027*[#  12]+0.027*[#  14]+0.027*[#  15]+
          +0.027*[#  16]+
    |psi|^2 = 0.825
==== e(   8) =    10.00513 eV ==== 
     psi = 0.063*[#   2]+0.063*[#   3]+0.063*[#   4]+0.063*[#   6]+0.063*[#   7]+
          +0.063*[#   8]+0.063*[#  10]+0.063*[#  11]+0.063*[#  12]+0.063*[#  14]+
          +0.063*[#  15]+0.063*[#  16]+0.030*[#   1]+0.030*[#   5]+0.030*[#   9]+
          +0.030*[#  13]+
    |psi|^2 = 0.878
==== e(   9) =    11.11036 eV ==== 
     psi = 0.064*[#   2]+0.064*[#   3]+0.064*[#   4]+0.064*[#   6]+0.064*[#   7]+
          +0.064*[#   8]+0.064*[#  10]+0.064*[#  11]+0.064*[#  12]+0.064*[#  14]+
          +0.064*[#  15]+0.064*[#  16]+
    |psi|^2 = 0.763
==== e(  10) =    11.94643 eV ==== 
     psi = 0.055*[#   2]+0.055*[#   3]+0.055*[#   4]+0.055*[#   6]+0.055*[#   7]+
          +0.055*[#   8]+0.055*[#  10]+0.055*[#  11]+0.055*[#  12]+0.055*[#  14]+
          +0.055*[#  15]+0.055*[#  16]+
    |psi|^2 = 0.661

 k =   0.0000000000  0.1000000000  0.2000000000
==== e(   1) =    -2.77209 eV ==== 
     psi = 0.161*[#   1]+0.161*[#   5]+0.161*[#   9]+0.161*[#  13]+0.030*[#   2]+
          +0.030*[#   3]+0.030*[#   4]+0.030*[#   6]+0.030*[#   7]+0.030*[#   8]+
          +0.030*[#  10]+0.030*[#  11]+0.030*[#  12]+0.030*[#  14]+0.030*[#  15]+
          +0.030*[#  16]+
    |psi|^2 = 0.999
==== e(   2) =     2.54373 eV ==== 
     psi = 0.073*[#   1]+0.073*[#   5]+0.073*[#   9]+0.073*[#  13]+0.058*[#   2]+
          +0.058*[#   3]+0.058*[#   4]+0.058*[#   6]+0.058*[#   7]+0.058*[#   8]+
          +0.058*[#  10]+0.058*[#  11]+0.058*[#  12]+0.058*[#  14]+0.058*[#  15]+
          +0.058*[#  16]+
    |psi|^2 = 0.992
==== e(   3) =     4.22930 eV ==== 
     psi = 0.063*[#   2]+0.063*[#   3]+0.063*[#   4]+0.063*[#   6]+0.063*[#   7]+
          +0.063*[#   8]+0.063*[#  10]+0.063*[#  11]+0.063*[#  12]+0.063*[#  14]+
          +0.063*[#  15]+0.063*[#  16]+0.058*[#   1]+0.058*[#   5]+0.058*[#   9]+
          +0.058*[#  13]+
    |psi|^2 = 0.988
==== e(   4) =     5.41254 eV ==== 
     psi = 0.083*[#   2]+0.083*[#   3]+0.083*[#   4]+0.083*[#   6]+0.083*[#   7]+
          +0.083*[#   8]+0.083*[#  10]+0.083*[#  11]+0.083*[#  12]+0.083*[#  14]+
          +0.083*[#  15]+0.083*[#  16]+
    |psi|^2 = 0.997
==== e(   5) =     6.75696 eV ==== 
     psi = 0.173*[#   1]+0.173*[#   5]+0.173*[#   9]+0.173*[#  13]+0.017*[#   2]+
          +0.017*[#   3]+0.017*[#   4]+0.017*[#   6]+0.017*[#   7]+0.017*[#   8]+
          +0.017*[#  10]+0.017*[#  11]+0.017*[#  12]+0.017*[#  14]+0.017*[#  15]+
          +0.017*[#  16]+
    |psi|^2 = 0.893
==== e(   6) =     7.92847 eV ==== 
     psi = 0.118*[#   1]+0.118*[#   5]+0.118*[#   9]+0.118*[#  13]+0.034*[#   2]+
          +0.034*[#   3]+0.034*[#   4]+0.034*[#   6]+0.034*[#   7]+0.034*[#   8]+
          +0.034*[#  10]+0.034*[#  11]+0.034*[#  12]+0.034*[#  14]+0.034*[#  15]+
          +0.034*[#  16]+
    |psi|^2 = 0.882
==== e(   7) =     9.33550 eV ==== 
     psi = 0.063*[#   2]+0.063*[#   3]+0.063*[#   4]+0.063*[#   6]+0.063*[#   7]+
          +0.063*[#   8]+0.063*[#  10]+0.063*[#  11]+0.063*[#  12]+0.063*[#  14]+
          +0.063*[#  15]+0.063*[#  16]+0.039*[#   1]+0.039*[#   5]+0.039*[#   9]+
          +0.039*[#  13]+
    |psi|^2 = 0.915
==== e(   8) =     9.57501 eV ==== 
     psi = 0.117*[#   1]+0.117*[#   5]+0.117*[#   9]+0.117*[#  13]+0.026*[#   2]+
          +0.026*[#   3]+0.026*[#   4]+0.026*[#   6]+0.026*[#   7]+0.026*[#   8]+
          +0.026*[#  10]+0.026*[#  11]+0.026*[#  12]+0.026*[#  14]+0.026*[#  15]+
          +0.026*[#  16]+
    |psi|^2 = 0.782
==== e(   9) =    10.42021 eV ==== 
     psi = 0.070*[#   2]+0.070*[#   3]+0.070*[#   4]+0.070*[#   6]+0.070*[#   7]+
          +0.070*[#   8]+0.070*[#  10]+0.070*[#  11]+0.070*[#  12]+0.070*[#  14]+
          +0.070*[#  15]+0.070*[#  16]+
    |psi|^2 = 0.837
==== e(  10) =    11.89135 eV ==== 
     psi = 0.060*[#   1]+0.060*[#   5]+0.060*[#   9]+0.060*[#  13]+0.060*[#   2]+
          +0.060*[#   3]+0.060*[#   4]+0.060*[#   6]+0.060*[#   7]+0.060*[#   8]+
          +0.060*[#  10]+0.060*[#  11]+0.060*[#  12]+0.060*[#  14]+0.060*[#  15]+
          +0.060*[#  16]+
    |psi|^2 = 0.963

 k =   0.0000000000  0.1000000000  0.2500000000
==== e(   1) =    -2.56854 eV ==== 
     psi = 0.141*[#   1]+0.141*[#   5]+0.141*[#   9]+0.141*[#  13]+0.036*[#   2]+
          +0.036*[#   3]+0.036*[#   4]+0.036*[#   6]+0.036*[#   7]+0.036*[#   8]+
          +0.036*[#  10]+0.036*[#  11]+0.036*[#  12]+0.036*[#  14]+0.036*[#  15]+
          +0.036*[#  16]+
    |psi|^2 = 0.999
==== e(   2) =     1.87319 eV ==== 
     psi = 0.075*[#   1]+0.075*[#   5]+0.075*[#   9]+0.075*[#  13]+0.058*[#   2]+
          +0.058*[#   3]+0.058*[#   4]+0.058*[#   6]+0.058*[#   7]+0.058*[#   8]+
          +0.058*[#  10]+0.058*[#  11]+0.058*[#  12]+0.058*[#  14]+0.058*[#  15]+
          +0.058*[#  16]+
    |psi|^2 = 0.995
==== e(   3) =     4.42152 eV ==== 
     psi = 0.064*[#   2]+0.064*[#   3]+0.064*[#   4]+0.064*[#   6]+0.064*[#   7]+
          +0.064*[#   8]+0.064*[#  10]+0.064*[#  11]+0.064*[#  12]+0.064*[#  14]+
          +0.064*[#  15]+0.064*[#  16]+0.055*[#   1]+0.055*[#   5]+0.055*[#   9]+
          +0.055*[#  13]+
    |psi|^2 = 0.989
==== e(   4) =     5.59958 eV ==== 
     psi = 0.083*[#   2]+0.083*[#   3]+0.083*[#   4]+0.083*[#   6]+0.083*[#   7]+
          +0.083*[#   8]+0.083*[#  10]+0.083*[#  11]+0.083*[#  12]+0.083*[#  14]+
          +0.083*[#  15]+0.083*[#  16]+
    |psi|^2 = 0.996
==== e(   5) =     6.94343 eV ==== 
     psi = 0.152*[#   1]+0.152*[#   5]+0.152*[#   9]+0.152*[#  13]+0.025*[#   2]+
          +0.025*[#   3]+0.025*[#   4]+0.025*[#   6]+0.025*[#   7]+0.025*[#   8]+
          +0.025*[#  10]+0.025*[#  11]+0.025*[#  12]+0.025*[#  14]+0.025*[#  15]+
          +0.025*[#  16]+
    |psi|^2 = 0.905
==== e(   6) =     8.11365 eV ==== 
     psi = 0.103*[#   1]+0.103*[#   5]+0.103*[#   9]+0.103*[#  13]+0.040*[#   2]+
          +0.040*[#   3]+0.040*[#   4]+0.040*[#   6]+0.040*[#   7]+0.040*[#   8]+
          +0.040*[#  10]+0.040*[#  11]+0.040*[#  12]+0.040*[#  14]+0.040*[#  15]+
          +0.040*[#  16]+
    |psi|^2 = 0.895
==== e(   7) =     8.70341 eV ==== 
     psi = 0.061*[#   2]+0.061*[#   3]+0.061*[#   4]+0.061*[#   6]+0.061*[#   7]+
          +0.061*[#   8]+0.061*[#  10]+0.061*[#  11]+0.061*[#  12]+0.061*[#  14]+
          +0.061*[#  15]+0.061*[#  16]+0.052*[#   1]+0.052*[#   5]+0.052*[#   9]+
          +0.052*[#  13]+
    |psi|^2 = 0.939
==== e(   8) =     9.77181 eV ==== 
     psi = 0.074*[#   2]+0.074*[#   3]+0.074*[#   4]+0.074*[#   6]+0.074*[#   7]+
          +0.074*[#   8]+0.074*[#  10]+0.074*[#  11]+0.074*[#  12]+0.074*[#  14]+
          +0.074*[#  15]+0.074*[#  16]+
    |psi|^2 = 0.890
==== e(   9) =    10.59582 eV ==== 
     psi = 0.106*[#   1]+0.106*[#   5]+0.106*[#   9]+0.106*[#  13]+0.025*[#   2]+
          +0.025*[#   3]+0.025*[#   4]+0.025*[#   6]+0.025*[#   7]+0.025*[#   8]+
          +0.025*[#  10]+0.025*[#  11]+0.025*[#  12]+0.025*[#  14]+0.025*[#  15]+
          +0.025*[#  16]+
    |psi|^2 = 0.730
==== e(  10) =    11.30912 eV ==== 
     psi = 0.082*[#   1]+0.082*[#   5]+0.082*[#   9]+0.082*[#  13]+0.053*[#   2]+
          +0.053*[#   3]+0.053*[#   4]+0.053*[#   6]+0.053*[#   7]+0.053*[#   8]+
          +0.053*[#  10]+0.053*[#  11]+0.053*[#  12]+0.053*[#  14]+0.053*[#  15]+
          +0.053*[#  16]+
    |psi|^2 = 0.968

 k =   0.0000000000  0.1000000000  0.3000000000
==== e(   1) =    -2.32017 eV ==== 
     psi = 0.124*[#   1]+0.124*[#   5]+0.124*[#   9]+0.124*[#  13]+0.042*[#   2]+
          +0.042*[#   3]+0.042*[#   4]+0.042*[#   6]+0.042*[#   7]+0.042*[#   8]+
          +0.042*[#  10]+0.042*[#  11]+0.042*[#  12]+0.042*[#  14]+0.042*[#  15]+
          +0.042*[#  16]+
    |psi|^2 = 0.999
==== e(   2) =     1.24017 eV ==== 
     psi = 0.075*[#   1]+0.075*[#   5]+0.075*[#   9]+0.075*[#  13]+0.058*[#   2]+
          +0.058*[#   3]+0.058*[#   4]+0.058*[#   6]+0.058*[#   7]+0.058*[#   8]+
          +0.058*[#  10]+0.058*[#  11]+0.058*[#  12]+0.058*[#  14]+0.058*[#  15]+
          +0.058*[#  16]+
    |psi|^2 = 0.996
==== e(   3) =     4.65608 eV ==== 
     psi = 0.065*[#   2]+0.065*[#   3]+0.065*[#   4]+0.065*[#   6]+0.065*[#   7]+
          +0.065*[#   8]+0.065*[#  10]+0.065*[#  11]+0.065*[#  12]+0.065*[#  14]+
          +0.065*[#  15]+0.065*[#  16]+0.052*[#   1]+0.052*[#   5]+0.052*[#   9]+
          +0.052*[#  13]+
    |psi|^2 = 0.989
==== e(   4) =     5.82828 eV ==== 
     psi = 0.083*[#   2]+0.083*[#   3]+0.083*[#   4]+0.083*[#   6]+0.083*[#   7]+
          +0.083*[#   8]+0.083*[#  10]+0.083*[#  11]+0.083*[#  12]+0.083*[#  14]+
          +0.083*[#  15]+0.083*[#  16]+
    |psi|^2 = 0.995
==== e(   5) =     7.15222 eV ==== 
     psi = 0.115*[#   1]+0.115*[#   5]+0.115*[#   9]+0.115*[#  13]+0.038*[#   2]+
          +0.038*[#   3]+0.038*[#   4]+0.038*[#   6]+0.038*[#   7]+0.038*[#   8]+
          +0.038*[#  10]+0.038*[#  11]+0.038*[#  12]+0.038*[#  14]+0.038*[#  15]+
          +0.038*[#  16]+
    |psi|^2 = 0.919
==== e(   6) =     8.12752 eV ==== 
     psi = 0.079*[#   1]+0.079*[#   5]+0.079*[#   9]+0.079*[#  13]+0.053*[#   2]+
          +0.053*[#   3]+0.053*[#   4]+0.053*[#   6]+0.053*[#   7]+0.053*[#   8]+
          +0.053*[#  10]+0.053*[#  11]+0.053*[#  12]+0.053*[#  14]+0.053*[#  15]+
          +0.053*[#  16]+
    |psi|^2 = 0.954
==== e(   7) =     8.33410 eV ==== 
     psi = 0.084*[#   1]+0.084*[#   5]+0.084*[#   9]+0.084*[#  13]+0.048*[#   2]+
          +0.048*[#   3]+0.048*[#   4]+0.048*[#   6]+0.048*[#   7]+0.048*[#   8]+
          +0.048*[#  10]+0.048*[#  11]+0.048*[#  12]+0.048*[#  14]+0.048*[#  15]+
          +0.048*[#  16]+
    |psi|^2 = 0.906
==== e(   8) =     9.16544 eV ==== 
     psi = 0.077*[#   2]+0.077*[#   3]+0.077*[#   4]+0.077*[#   6]+0.077*[#   7]+
          +0.077*[#   8]+0.077*[#  10]+0.077*[#  11]+0.077*[#  12]+0.077*[#  14]+
          +0.077*[#  15]+0.077*[#  16]+
    |psi|^2 = 0.926
==== e(   9) =    10.74959 eV ==== 
     psi = 0.107*[#   1]+0.107*[#   5]+0.107*[#   9]+0.107*[#  13]+0.045*[#   2]+
          +0.045*[#   3]+0.045*[#   4]+0.045*[#   6]+0.045*[#   7]+0.045*[#   8]+
          +0.045*[#  10]+0.045*[#  11]+0.045*[#  12]+0.045*[#  14]+0.045*[#  15]+
          +0.045*[#  16]+
    |psi|^2 = 0.973
==== e(  10) =    11.65456 eV ==== 
     psi = 0.094*[#   1]+0.094*[#   5]+0.094*[#   9]+0.094*[#  13]+0.024*[#   2]+
          +0.024*[#   3]+0.024*[#   4]+0.024*[#   6]+0.024*[#   7]+0.024*[#   8]+
          +0.024*[#  10]+0.024*[#  11]+0.024*[#  12]+0.024*[#  14]+0.024*[#  15]+
          +0.024*[#  16]+
    |psi|^2 = 0.670

 k =   0.0000000000  0.1000000000  0.3500000000
==== e(   1) =    -2.02720 eV ==== 
     psi = 0.110*[#   1]+0.110*[#   5]+0.110*[#   9]+0.110*[#  13]+0.046*[#   2]+
          +0.046*[#   3]+0.046*[#   4]+0.046*[#   6]+0.046*[#   7]+0.046*[#   8]+
          +0.046*[#  10]+0.046*[#  11]+0.046*[#  12]+0.046*[#  14]+0.046*[#  15]+
          +0.046*[#  16]+
    |psi|^2 = 0.999
==== e(   2) =     0.64682 eV ==== 
     psi = 0.076*[#   1]+0.076*[#   5]+0.076*[#   9]+0.076*[#  13]+0.058*[#   2]+
          +0.058*[#   3]+0.058*[#   4]+0.058*[#   6]+0.058*[#   7]+0.058*[#   8]+
          +0.058*[#  10]+0.058*[#  11]+0.058*[#  12]+0.058*[#  14]+0.058*[#  15]+
          +0.058*[#  16]+
    |psi|^2 = 0.998
==== e(   3) =     4.93273 eV ==== 
     psi = 0.066*[#   2]+0.066*[#   3]+0.066*[#   4]+0.066*[#   6]+0.066*[#   7]+
          +0.066*[#   8]+0.066*[#  10]+0.066*[#  11]+0.066*[#  12]+0.066*[#  14]+
          +0.066*[#  15]+0.066*[#  16]+0.049*[#   1]+0.049*[#   5]+0.049*[#   9]+
          +0.049*[#  13]+
    |psi|^2 = 0.989
==== e(   4) =     6.09872 eV ==== 
     psi = 0.083*[#   2]+0.083*[#   3]+0.083*[#   4]+0.083*[#   6]+0.083*[#   7]+
          +0.083*[#   8]+0.083*[#  10]+0.083*[#  11]+0.083*[#  12]+0.083*[#  14]+
          +0.083*[#  15]+0.083*[#  16]+
    |psi|^2 = 0.993
==== e(   5) =     7.25220 eV ==== 
     psi = 0.074*[#   2]+0.074*[#   3]+0.074*[#   4]+0.074*[#   6]+0.074*[#   7]+
          +0.074*[#   8]+0.074*[#  10]+0.074*[#  11]+0.074*[#  12]+0.074*[#  14]+
          +0.074*[#  15]+0.074*[#  16]+0.017*[#   1]+0.017*[#   5]+0.017*[#   9]+
          +0.017*[#  13]+
    |psi|^2 = 0.951
==== e(   6) =     7.73954 eV ==== 
     psi = 0.164*[#   1]+0.164*[#   5]+0.164*[#   9]+0.164*[#  13]+0.024*[#   2]+
          +0.024*[#   3]+0.024*[#   4]+0.024*[#   6]+0.024*[#   7]+0.024*[#   8]+
          +0.024*[#  10]+0.024*[#  11]+0.024*[#  12]+0.024*[#  14]+0.024*[#  15]+
          +0.024*[#  16]+
    |psi|^2 = 0.943
==== e(   7) =     8.57878 eV ==== 
     psi = 0.057*[#   2]+0.057*[#   3]+0.057*[#   4]+0.057*[#   6]+0.057*[#   7]+
          +0.057*[#   8]+0.057*[#  10]+0.057*[#  11]+0.057*[#  12]+0.057*[#  14]+
          +0.057*[#  15]+0.057*[#  16]+0.057*[#   1]+0.057*[#   5]+0.057*[#   9]+
          +0.057*[#  13]+
    |psi|^2 = 0.913
==== e(   8) =     8.60117 eV ==== 
     psi = 0.079*[#   2]+0.079*[#   3]+0.079*[#   4]+0.079*[#   6]+0.079*[#   7]+
          +0.079*[#   8]+0.079*[#  10]+0.079*[#  11]+0.079*[#  12]+0.079*[#  14]+
          +0.079*[#  15]+0.079*[#  16]+
    |psi|^2 = 0.950
==== e(   9) =    10.23340 eV ==== 
     psi = 0.138*[#   1]+0.138*[#   5]+0.138*[#   9]+0.138*[#  13]+0.035*[#   2]+
          +0.035*[#   3]+0.035*[#   4]+0.035*[#   6]+0.035*[#   7]+0.035*[#   8]+
          +0.035*[#  10]+0.035*[#  11]+0.035*[#  12]+0.035*[#  14]+0.035*[#  15]+
          +0.035*[#  16]+
    |psi|^2 = 0.977
==== e(  10) =    11.24933 eV ==== 
     psi = 0.063*[#   1]+0.063*[#   5]+0.063*[#   9]+0.063*[#  13]+0.057*[#   2]+
          +0.057*[#   3]+0.057*[#   4]+0.057*[#   6]+0.057*[#   7]+0.057*[#   8]+
          +0.057*[#  10]+0.057*[#  11]+0.057*[#  12]+0.057*[#  14]+0.057*[#  15]+
          +0.057*[#  16]+
    |psi|^2 = 0.933

 k =   0.0000000000  0.1000000000  0.4000000000
==== e(   1) =    -1.68994 eV ==== 
     psi = 0.099*[#   1]+0.099*[#   5]+0.099*[#   9]+0.099*[#  13]+0.050*[#   2]+
[...]
          +0.070*[#  16]+0.028*[#   2]+0.028*[#   3]+0.028*[#   4]+
    |psi|^2 = 0.506

 k =   0.4000000000  0.4500000000  0.4500000000
==== e(   1) =     1.81472 eV ==== 
     psi = 0.099*[#   1]+0.099*[#   5]+0.099*[#   9]+0.099*[#  13]+0.050*[#   2]+
          +0.050*[#   3]+0.050*[#   4]+0.050*[#   6]+0.050*[#   7]+0.050*[#   8]+
          +0.050*[#  10]+0.050*[#  11]+0.050*[#  12]+0.050*[#  14]+0.050*[#  15]+
          +0.050*[#  16]+
    |psi|^2 = 0.994
==== e(   2) =     2.68583 eV ==== 
     psi = 0.188*[#   1]+0.101*[#   8]+0.101*[#  10]+0.101*[#  15]+0.063*[#   5]+
          +0.063*[#   9]+0.063*[#  13]+0.041*[#   6]+0.041*[#   7]+0.041*[#  11]+
          +0.041*[#  12]+0.041*[#  14]+0.041*[#  16]+0.022*[#   2]+0.022*[#   3]+
          +0.022*[#   4]+
    |psi|^2 = 0.993
==== e(   3) =     2.68584 eV ==== 
     psi = 0.125*[#   5]+0.125*[#   9]+0.125*[#  13]+0.081*[#   2]+0.081*[#   3]+
          +0.081*[#   4]+0.062*[#   6]+0.062*[#   7]+0.062*[#  11]+0.062*[#  12]+
          +0.062*[#  14]+0.062*[#  16]+0.002*[#   8]+0.002*[#  10]+0.002*[#  15]+
    |psi|^2 = 0.993
==== e(   4) =     3.44949 eV ==== 
     psi = 0.083*[#   2]+0.083*[#   3]+0.083*[#   4]+0.083*[#   6]+0.083*[#   7]+
          +0.083*[#   8]+0.083*[#  10]+0.083*[#  11]+0.083*[#  12]+0.083*[#  14]+
          +0.083*[#  15]+0.083*[#  16]+
    |psi|^2 = 0.999
==== e(   5) =     3.67697 eV ==== 
     psi = 0.228*[#   1]+0.228*[#   5]+0.228*[#   9]+0.228*[#  13]+0.006*[#   2]+
          +0.006*[#   3]+0.006*[#   4]+0.006*[#   6]+0.006*[#   7]+0.006*[#   8]+
          +0.006*[#  10]+0.006*[#  11]+0.006*[#  12]+0.006*[#  14]+0.006*[#  15]+
          +0.006*[#  16]+
    |psi|^2 = 0.978
==== e(   6) =     4.43619 eV ==== 
     psi = 0.273*[#   1]+0.091*[#   5]+0.091*[#   9]+0.091*[#  13]+0.070*[#   8]+
          +0.070*[#  10]+0.070*[#  15]+0.040*[#   2]+0.040*[#   3]+0.040*[#   4]+
          +0.017*[#   6]+0.017*[#   7]+0.017*[#  11]+0.017*[#  12]+0.017*[#  14]+
          +0.017*[#  16]+
    |psi|^2 = 0.982
==== e(   7) =     4.43619 eV ==== 
     psi = 0.182*[#   5]+0.182*[#   9]+0.182*[#  13]+0.055*[#   6]+0.055*[#   7]+
          +0.055*[#  11]+0.055*[#  12]+0.055*[#  14]+0.055*[#  16]+0.032*[#   2]+
          +0.032*[#   3]+0.032*[#   4]+0.002*[#   8]+0.002*[#  10]+0.002*[#  15]+
    |psi|^2 = 0.982
==== e(   8) =     5.29404 eV ==== 
     psi = 0.142*[#   1]+0.142*[#   5]+0.142*[#   9]+0.142*[#  13]+0.034*[#   2]+
          +0.034*[#   3]+0.034*[#   4]+0.034*[#   6]+0.034*[#   7]+0.034*[#   8]+
          +0.034*[#  10]+0.034*[#  11]+0.034*[#  12]+0.034*[#  14]+0.034*[#  15]+
          +0.034*[#  16]+
    |psi|^2 = 0.975
==== e(   9) =    17.00643 eV ==== 
     psi = 0.048*[#   2]+0.048*[#   3]+0.048*[#   4]+0.048*[#   6]+0.048*[#   7]+
          +0.048*[#   8]+0.048*[#  10]+0.048*[#  11]+0.048*[#  12]+0.048*[#  14]+
          +0.048*[#  15]+0.048*[#  16]+0.011*[#   1]+0.011*[#   5]+0.011*[#   9]+
          +0.011*[#  13]+
    |psi|^2 = 0.623
==== e(  10) =    17.59103 eV ==== 
     psi = 0.059*[#   6]+0.059*[#   7]+0.059*[#  11]+0.059*[#  12]+0.059*[#  14]+
          +0.059*[#  16]+0.039*[#   8]+0.039*[#  10]+0.039*[#  15]+0.036*[#   2]+
          +0.036*[#   3]+0.036*[#   4]+
    |psi|^2 = 0.579

 k =   0.4000000000  0.4500000000 -0.5000000000
==== e(   1) =     2.22976 eV ==== 
     psi = 0.196*[#   1]+0.072*[#   6]+0.072*[#   7]+0.072*[#  11]+0.072*[#  12]+
          +0.072*[#  14]+0.072*[#  16]+0.065*[#   5]+0.065*[#   9]+0.065*[#  13]+
          +0.056*[#   2]+0.056*[#   3]+0.056*[#   4]+
    |psi|^2 = 0.994
==== e(   2) =     2.22977 eV ==== 
     psi = 0.131*[#   5]+0.131*[#   9]+0.131*[#  13]+0.100*[#   8]+0.100*[#  10]+
          +0.100*[#  15]+0.044*[#   2]+0.044*[#   3]+0.044*[#   4]+0.028*[#   6]+
          +0.028*[#   7]+0.028*[#  11]+0.028*[#  12]+0.028*[#  14]+0.028*[#  16]+
    |psi|^2 = 0.994
==== e(   3) =     3.09272 eV ==== 
     psi = 0.166*[#   1]+0.075*[#   6]+0.075*[#   7]+0.075*[#  11]+0.075*[#  12]+
          +0.075*[#  14]+0.075*[#  16]+0.071*[#   2]+0.071*[#   3]+0.071*[#   4]+
          +0.055*[#   5]+0.055*[#   9]+0.055*[#  13]+
    |psi|^2 = 0.993
==== e(   4) =     3.09272 eV ==== 
     psi = 0.111*[#   5]+0.111*[#   9]+0.111*[#  13]+0.110*[#   8]+0.110*[#  10]+
          +0.110*[#  15]+0.039*[#   2]+0.039*[#   3]+0.039*[#   4]+0.036*[#   6]+
          +0.036*[#   7]+0.036*[#  11]+0.036*[#  12]+0.036*[#  14]+0.036*[#  16]+
    |psi|^2 = 0.993
==== e(   5) =     3.98947 eV ==== 
     psi = 0.296*[#   1]+0.099*[#   5]+0.099*[#   9]+0.099*[#  13]+0.049*[#   2]+
          +0.049*[#   3]+0.049*[#   4]+0.041*[#   6]+0.041*[#   7]+0.041*[#  11]+
          +0.041*[#  12]+0.041*[#  14]+0.041*[#  16]+
    |psi|^2 = 0.983
==== e(   6) =     3.98947 eV ==== 
     psi = 0.197*[#   5]+0.197*[#   9]+0.197*[#  13]+0.065*[#   8]+0.065*[#  10]+
          +0.065*[#  15]+0.024*[#   6]+0.024*[#   7]+0.024*[#  11]+0.024*[#  12]+
          +0.024*[#  14]+0.024*[#  16]+0.017*[#   2]+0.017*[#   3]+0.017*[#   4]+
    |psi|^2 = 0.983
==== e(   7) =     4.84356 eV ==== 
     psi = 0.279*[#   1]+0.093*[#   5]+0.093*[#   9]+0.093*[#  13]+0.057*[#   2]+
          +0.057*[#   3]+0.057*[#   4]+0.042*[#   6]+0.042*[#   7]+0.042*[#  11]+
          +0.042*[#  12]+0.042*[#  14]+0.042*[#  16]+
    |psi|^2 = 0.979
==== e(   8) =     4.84356 eV ==== 
     psi = 0.186*[#   5]+0.186*[#   9]+0.186*[#  13]+0.070*[#   8]+0.070*[#  10]+
          +0.070*[#  15]+0.028*[#   6]+0.028*[#   7]+0.028*[#  11]+0.028*[#  12]+
          +0.028*[#  14]+0.028*[#  16]+0.013*[#   2]+0.013*[#   3]+0.013*[#   4]+
    |psi|^2 = 0.979
==== e(   9) =    17.32865 eV ==== 
     psi = 0.071*[#   2]+0.071*[#   3]+0.071*[#   4]+0.062*[#   6]+0.062*[#   7]+
          +0.062*[#  11]+0.062*[#  12]+0.062*[#  14]+0.062*[#  16]+0.014*[#   1]+
          +0.005*[#   5]+0.005*[#   9]+0.005*[#  13]+
    |psi|^2 = 0.614
==== e(  10) =    17.32865 eV ==== 
     psi = 0.098*[#   8]+0.098*[#  10]+0.098*[#  15]+0.035*[#   6]+0.035*[#   7]+
          +0.035*[#  11]+0.035*[#  12]+0.035*[#  14]+0.035*[#  16]+0.027*[#   2]+
          +0.027*[#   3]+0.027*[#   4]+0.010*[#   5]+0.010*[#   9]+0.010*[#  13]+
    |psi|^2 = 0.614

 k =   0.4000000000 -0.5000000000 -0.5000000000
==== e(   1) =     2.64255 eV ==== 
     psi = 0.383*[#   1]+0.081*[#   6]+0.081*[#   7]+0.081*[#  11]+0.081*[#  12]+
          +0.081*[#  14]+0.081*[#  16]+0.041*[#   2]+0.041*[#   3]+0.041*[#   4]+
    |psi|^2 = 0.993
==== e(   2) =     2.64255 eV ==== 
     psi = 0.203*[#   8]+0.203*[#  10]+0.203*[#  15]+0.128*[#   5]+0.128*[#   9]+
          +0.128*[#  13]+
    |psi|^2 = 0.993
==== e(   3) =     2.64255 eV ==== 
     psi = 0.128*[#   5]+0.128*[#   9]+0.128*[#  13]+0.081*[#   2]+0.081*[#   3]+
          +0.081*[#   4]+0.061*[#   6]+0.061*[#   7]+0.061*[#  11]+0.061*[#  12]+
          +0.061*[#  14]+0.061*[#  16]+
    |psi|^2 = 0.993
==== e(   4) =     2.64255 eV ==== 
     psi = 0.128*[#   5]+0.128*[#   9]+0.128*[#  13]+0.081*[#   2]+0.081*[#   3]+
          +0.081*[#   4]+0.061*[#   6]+0.061*[#   7]+0.061*[#  11]+0.061*[#  12]+
          +0.061*[#  14]+0.061*[#  16]+
    |psi|^2 = 0.993
==== e(   5) =     4.39313 eV ==== 
     psi = 0.560*[#   1]+0.076*[#   2]+0.076*[#   3]+0.076*[#   4]+0.032*[#   6]+
          +0.032*[#   7]+0.032*[#  11]+0.032*[#  12]+0.032*[#  14]+0.032*[#  16]+
    |psi|^2 = 0.982
==== e(   6) =     4.39313 eV ==== 
     psi = 0.187*[#   5]+0.187*[#   9]+0.187*[#  13]+0.140*[#   8]+0.140*[#  10]+
          +0.140*[#  15]+
    |psi|^2 = 0.982
==== e(   7) =     4.39314 eV ==== 
     psi = 0.187*[#   5]+0.187*[#   9]+0.187*[#  13]+0.054*[#   6]+0.054*[#   7]+
          +0.054*[#  11]+0.054*[#  12]+0.054*[#  14]+0.054*[#  16]+0.032*[#   2]+
          +0.032*[#   3]+0.032*[#   4]+
    |psi|^2 = 0.982
==== e(   8) =     4.39314 eV ==== 
     psi = 0.187*[#   5]+0.187*[#   9]+0.187*[#  13]+0.054*[#   6]+0.054*[#   7]+
          +0.054*[#  11]+0.054*[#  12]+0.054*[#  14]+0.054*[#  16]+0.032*[#   2]+
          +0.032*[#   3]+0.032*[#   4]+
    |psi|^2 = 0.982
==== e(   9) =    17.66485 eV ==== 
     psi = 0.120*[#   8]+0.120*[#  10]+0.120*[#  15]+0.036*[#   2]+0.036*[#   3]+
          +0.036*[#   4]+0.021*[#   6]+0.021*[#   7]+0.021*[#  11]+0.021*[#  12]+
          +0.021*[#  14]+0.021*[#  16]+0.006*[#   5]+0.006*[#   9]+0.006*[#  13]+
          +0.005*[#   1]+
    |psi|^2 = 0.615
==== e(  10) =    17.66486 eV ==== 
     psi = 0.059*[#   6]+0.059*[#   7]+0.059*[#  11]+0.059*[#  12]+0.059*[#  14]+
          +0.059*[#  16]+0.046*[#   8]+0.046*[#  10]+0.046*[#  15]+0.033*[#   2]+
          +0.033*[#   3]+0.033*[#   4]+0.007*[#   5]+0.007*[#   9]+0.007*[#  13]+
          +0.002*[#   1]+
    |psi|^2 = 0.615

 k =   0.4500000000  0.4500000000  0.4500000000
==== e(   1) =     2.18621 eV ==== 
     psi = 0.100*[#   1]+0.100*[#   5]+0.100*[#   9]+0.100*[#  13]+0.049*[#   2]+
          +0.049*[#   3]+0.049*[#   4]+0.049*[#   6]+0.049*[#   7]+0.049*[#   8]+
          +0.049*[#  10]+0.049*[#  11]+0.049*[#  12]+0.049*[#  14]+0.049*[#  15]+
          +0.049*[#  16]+
    |psi|^2 = 0.993
==== e(   2) =     3.04963 eV ==== 
     psi = 0.255*[#   1]+0.160*[#   8]+0.160*[#  10]+0.160*[#  15]+0.028*[#   5]+
          +0.028*[#   9]+0.028*[#  13]+0.025*[#   6]+0.025*[#   7]+0.025*[#  11]+
          +0.025*[#  12]+0.025*[#  14]+0.025*[#  16]+0.007*[#   2]+0.007*[#   3]+
          +0.007*[#   4]+
    |psi|^2 = 0.993
==== e(   3) =     3.04963 eV ==== 
     psi = 0.114*[#   5]+0.114*[#   9]+0.114*[#  13]+0.078*[#   2]+0.078*[#   3]+
          +0.078*[#   4]+0.069*[#   6]+0.069*[#   7]+0.069*[#  11]+0.069*[#  12]+
          +0.069*[#  14]+0.069*[#  16]+0.001*[#   8]+0.001*[#  10]+0.001*[#  15]+
    |psi|^2 = 0.993
==== e(   4) =     3.04963 eV ==== 
     psi = 0.114*[#   5]+0.114*[#   9]+0.114*[#  13]+0.078*[#   2]+0.078*[#   3]+
          +0.078*[#   4]+0.069*[#   6]+0.069*[#   7]+0.069*[#  11]+0.069*[#  12]+
          +0.069*[#  14]+0.069*[#  16]+0.001*[#   8]+0.001*[#  10]+0.001*[#  15]+
    |psi|^2 = 0.993
==== e(   5) =     3.94629 eV ==== 
     psi = 0.453*[#   1]+0.090*[#   8]+0.090*[#  10]+0.090*[#  15]+0.050*[#   5]+
          +0.050*[#   9]+0.050*[#  13]+0.028*[#   2]+0.028*[#   3]+0.028*[#   4]+
          +0.004*[#   6]+0.004*[#   7]+0.004*[#  11]+0.004*[#  12]+0.004*[#  14]+
          +0.004*[#  16]+
    |psi|^2 = 0.983
==== e(   6) =     3.94629 eV ==== 
     psi = 0.201*[#   5]+0.201*[#   9]+0.201*[#  13]+0.045*[#   6]+0.045*[#   7]+
          +0.045*[#  11]+0.045*[#  12]+0.045*[#  14]+0.045*[#  16]+0.033*[#   2]+
          +0.033*[#   3]+0.033*[#   4]+0.003*[#   8]+0.003*[#  10]+0.003*[#  15]+
    |psi|^2 = 0.983
==== e(   7) =     3.94629 eV ==== 
     psi = 0.201*[#   5]+0.201*[#   9]+0.201*[#  13]+0.045*[#   6]+0.045*[#   7]+
          +0.045*[#  11]+0.045*[#  12]+0.045*[#  14]+0.045*[#  16]+0.033*[#   2]+
          +0.033*[#   3]+0.033*[#   4]+0.003*[#   8]+0.003*[#  10]+0.003*[#  15]+
    |psi|^2 = 0.983
==== e(   8) =     4.80084 eV ==== 
     psi = 0.143*[#   1]+0.143*[#   5]+0.143*[#   9]+0.143*[#  13]+0.034*[#   2]+
          +0.034*[#   3]+0.034*[#   4]+0.034*[#   6]+0.034*[#   7]+0.034*[#   8]+
          +0.034*[#  10]+0.034*[#  11]+0.034*[#  12]+0.034*[#  14]+0.034*[#  15]+
          +0.034*[#  16]+
    |psi|^2 = 0.978
==== e(   9) =    18.04184 eV ==== 
     psi = 0.092*[#   2]+0.092*[#   3]+0.092*[#   4]+0.035*[#   6]+0.035*[#   7]+
          +0.035*[#  11]+0.035*[#  12]+0.035*[#  14]+0.035*[#  16]+0.016*[#   8]+
          +0.016*[#  10]+0.016*[#  15]+0.012*[#   1]+0.003*[#   5]+0.003*[#   9]+
          +0.003*[#  13]+
    |psi|^2 = 0.557
==== e(  10) =    18.04185 eV ==== 
     psi = 0.067*[#   8]+0.067*[#  10]+0.067*[#  15]+0.052*[#   6]+0.052*[#   7]+
          +0.052*[#  11]+0.052*[#  12]+0.052*[#  14]+0.052*[#  16]+0.007*[#   2]+
          +0.007*[#   3]+0.007*[#   4]+0.007*[#   5]+0.007*[#   9]+0.007*[#  13]+
    |psi|^2 = 0.557

 k =   0.4500000000  0.4500000000 -0.5000000000
==== e(   1) =     2.59918 eV ==== 
     psi = 0.196*[#   1]+0.070*[#   6]+0.070*[#   7]+0.070*[#  11]+0.070*[#  12]+
          +0.070*[#  14]+0.070*[#  16]+0.065*[#   5]+0.065*[#   9]+0.065*[#  13]+
          +0.059*[#   2]+0.059*[#   3]+0.059*[#   4]+
    |psi|^2 = 0.993
==== e(   2) =     2.59918 eV ==== 
     psi = 0.131*[#   5]+0.131*[#   9]+0.131*[#  13]+0.100*[#   8]+0.100*[#  10]+
          +0.100*[#  15]+0.041*[#   2]+0.041*[#   3]+0.041*[#   4]+0.030*[#   6]+
          +0.030*[#   7]+0.030*[#  11]+0.030*[#  12]+0.030*[#  14]+0.030*[#  16]+
    |psi|^2 = 0.993
==== e(   3) =     3.36553 eV ==== 
     psi = 0.167*[#   8]+0.167*[#  10]+0.167*[#  15]+0.056*[#   2]+0.056*[#   3]+
          +0.056*[#   4]+0.055*[#   6]+0.055*[#   7]+0.055*[#  11]+0.055*[#  12]+
          +0.055*[#  14]+0.055*[#  16]+
    |psi|^2 = 0.999
==== e(   4) =     3.36553 eV ==== 
     psi = 0.111*[#   2]+0.111*[#   3]+0.111*[#   4]+0.111*[#   6]+0.111*[#   7]+
          +0.111*[#  11]+0.111*[#  12]+0.111*[#  14]+0.111*[#  16]+
    |psi|^2 = 0.999
==== e(   5) =     3.58831 eV ==== 
     psi = 0.476*[#   1]+0.159*[#   5]+0.159*[#   9]+0.159*[#  13]+0.004*[#   2]+
          +0.004*[#   3]+0.004*[#   4]+0.002*[#   6]+0.002*[#   7]+0.002*[#  11]+
          +0.002*[#  12]+0.002*[#  14]+0.002*[#  16]+
    |psi|^2 = 0.977
==== e(   6) =     3.58832 eV ==== 
     psi = 0.317*[#   5]+0.317*[#   9]+0.317*[#  13]+0.004*[#   8]+0.004*[#  10]+
          +0.004*[#  15]+0.002*[#   6]+0.002*[#   7]+0.002*[#  11]+0.002*[#  12]+
          +0.002*[#  14]+0.002*[#  16]+
    |psi|^2 = 0.977
==== e(   7) =     4.35023 eV ==== 
     psi = 0.287*[#   1]+0.096*[#   5]+0.096*[#   9]+0.096*[#  13]+0.052*[#   2]+
          +0.052*[#   3]+0.052*[#   4]+0.042*[#   6]+0.042*[#   7]+0.042*[#  11]+
          +0.042*[#  12]+0.042*[#  14]+0.042*[#  16]+
    |psi|^2 = 0.981
==== e(   8) =     4.35023 eV ==== 
     psi = 0.192*[#   5]+0.192*[#   9]+0.192*[#  13]+0.068*[#   8]+0.068*[#  10]+
          +0.068*[#  15]+0.026*[#   6]+0.026*[#   7]+0.026*[#  11]+0.026*[#  12]+
          +0.026*[#  14]+0.026*[#  16]+0.016*[#   2]+0.016*[#   3]+0.016*[#   4]+
    |psi|^2 = 0.981
==== e(   9) =    18.26484 eV ==== 
     psi = 0.079*[#   8]+0.079*[#  10]+0.079*[#  15]+0.053*[#   2]+0.053*[#   3]+
          +0.053*[#   4]+0.013*[#   6]+0.013*[#   7]+0.013*[#  11]+0.013*[#  12]+
          +0.013*[#  14]+0.013*[#  16]+
    |psi|^2 = 0.474
==== e(  10) =    18.26484 eV ==== 
     psi = 0.066*[#   6]+0.066*[#   7]+0.066*[#  11]+0.066*[#  12]+0.066*[#  14]+
          +0.066*[#  16]+0.026*[#   2]+0.026*[#   3]+0.026*[#   4]+
    |psi|^2 = 0.474

 k =   0.4500000000 -0.5000000000 -0.5000000000
==== e(   1) =     3.00661 eV ==== 
     psi = 0.349*[#   1]+0.078*[#   6]+0.078*[#   7]+0.078*[#  11]+0.078*[#  12]+
          +0.078*[#  14]+0.078*[#  16]+0.058*[#   2]+0.058*[#   3]+0.058*[#   4]+
    |psi|^2 = 0.992
==== e(   2) =     3.00661 eV ==== 
     psi = 0.214*[#   8]+0.214*[#  10]+0.214*[#  15]+0.116*[#   5]+0.116*[#   9]+
          +0.116*[#  13]+
    |psi|^2 = 0.992
==== e(   3) =     3.00661 eV ==== 
     psi = 0.116*[#   5]+0.116*[#   9]+0.116*[#  13]+0.078*[#   2]+0.078*[#   3]+
          +0.078*[#   4]+0.068*[#   6]+0.068*[#   7]+0.068*[#  11]+0.068*[#  12]+
          +0.068*[#  14]+0.068*[#  16]+
    |psi|^2 = 0.992
==== e(   4) =     3.00661 eV ==== 
     psi = 0.116*[#   5]+0.116*[#   9]+0.116*[#  13]+0.078*[#   2]+0.078*[#   3]+
          +0.078*[#   4]+0.068*[#   6]+0.068*[#   7]+0.068*[#  11]+0.068*[#  12]+
          +0.068*[#  14]+0.068*[#  16]+
    |psi|^2 = 0.992
==== e(   5) =     3.90293 eV ==== 
     psi = 0.618*[#   1]+0.055*[#   2]+0.055*[#   3]+0.055*[#   4]+0.033*[#   6]+
          +0.033*[#   7]+0.033*[#  11]+0.033*[#  12]+0.033*[#  14]+0.033*[#  16]+
    |psi|^2 = 0.983
==== e(   6) =     3.90294 eV ==== 
     psi = 0.206*[#   5]+0.206*[#   9]+0.206*[#  13]+0.121*[#   8]+0.121*[#  10]+
          +0.121*[#  15]+
    |psi|^2 = 0.983
==== e(   7) =     3.90294 eV ==== 
     psi = 0.206*[#   5]+0.206*[#   9]+0.206*[#  13]+0.044*[#   6]+0.044*[#   7]+
          +0.044*[#  11]+0.044*[#  12]+0.044*[#  14]+0.044*[#  16]+0.033*[#   2]+
          +0.033*[#   3]+0.033*[#   4]+
    |psi|^2 = 0.983
==== e(   8) =     3.90294 eV ==== 
     psi = 0.206*[#   5]+0.206*[#   9]+0.206*[#  13]+0.044*[#   6]+0.044*[#   7]+
          +0.044*[#  11]+0.044*[#  12]+0.044*[#  14]+0.044*[#  16]+0.033*[#   2]+
          +0.033*[#   3]+0.033*[#   4]+
    |psi|^2 = 0.983
==== e(   9) =    18.60028 eV ==== 
     psi = 0.092*[#   2]+0.092*[#   3]+0.092*[#   4]+0.044*[#   6]+0.044*[#   7]+
          +0.044*[#  11]+0.044*[#  12]+0.044*[#  14]+0.044*[#  16]+0.004*[#   1]+
          +0.003*[#   8]+0.003*[#  10]+0.003*[#  15]+
    |psi|^2 = 0.558
==== e(  10) =    18.60028 eV ==== 
     psi = 0.057*[#   6]+0.057*[#   7]+0.057*[#  11]+0.057*[#  12]+0.057*[#  14]+
          +0.057*[#  16]+0.047*[#   8]+0.047*[#  10]+0.047*[#  15]+0.023*[#   2]+
          +0.023*[#   3]+0.023*[#   4]+0.002*[#   5]+0.002*[#   9]+0.002*[#  13]+
    |psi|^2 = 0.558

 k =  -0.5000000000 -0.5000000000 -0.5000000000
==== e(   1) =     3.32354 eV ==== 
     psi = 0.333*[#   8]+0.333*[#  10]+0.333*[#  15]+
    |psi|^2 = 0.999
==== e(   2) =     3.32354 eV ==== 
     psi = 0.111*[#   2]+0.111*[#   3]+0.111*[#   4]+0.111*[#   6]+0.111*[#   7]+
          +0.111*[#  11]+0.111*[#  12]+0.111*[#  14]+0.111*[#  16]+
    |psi|^2 = 0.999
==== e(   3) =     3.32354 eV ==== 
     psi = 0.111*[#   2]+0.111*[#   3]+0.111*[#   4]+0.111*[#   6]+0.111*[#   7]+
          +0.111*[#  11]+0.111*[#  12]+0.111*[#  14]+0.111*[#  16]+
    |psi|^2 = 0.999
==== e(   4) =     3.32354 eV ==== 
     psi = 0.111*[#   2]+0.111*[#   3]+0.111*[#   4]+0.111*[#   6]+0.111*[#   7]+
          +0.111*[#  11]+0.111*[#  12]+0.111*[#  14]+0.111*[#  16]+
    |psi|^2 = 0.999
==== e(   5) =     3.54391 eV ==== 
     psi = 0.976*[#   1]+
    |psi|^2 = 0.976
==== e(   6) =     3.54392 eV ==== 
     psi = 0.325*[#   5]+0.325*[#   9]+0.325*[#  13]+
    |psi|^2 = 0.976
==== e(   7) =     3.54392 eV ==== 
     psi = 0.325*[#   5]+0.325*[#   9]+0.325*[#  13]+
    |psi|^2 = 0.976
==== e(   8) =     3.54392 eV ==== 
     psi = 0.325*[#   5]+0.325*[#   9]+0.325*[#  13]+
    |psi|^2 = 0.976
==== e(   9) =    19.36167 eV ==== 
     psi = 0.130*[#   2]+0.130*[#   3]+0.130*[#   4]+0.080*[#   8]+0.080*[#  10]+
          +0.080*[#  15]+0.057*[#   6]+0.057*[#   7]+0.057*[#  11]+0.057*[#  12]+
          +0.057*[#  14]+0.057*[#  16]+
    |psi|^2 = 0.972
==== e(  10) =    19.36167 eV ==== 
     psi = 0.132*[#   6]+0.132*[#   7]+0.132*[#  11]+0.132*[#  12]+0.132*[#  14]+
          +0.132*[#  16]+0.034*[#   2]+0.034*[#   3]+0.034*[#   4]+0.025*[#   8]+
          +0.025*[#  10]+0.025*[#  15]+
    |psi|^2 = 0.972

Lowdin Charges: 

           1           1  0.932803391117372        2.02396358117537     
     Atom #   1: total charge =   2.9568, s =  0.9328, 
     Atom #   1: total charge =   2.9568, p =  2.0240, pz=  0.6747, px=  0.6747, py=  0.6747, 
           1           1  0.932801501493029        2.02396001518563     
     Atom #   2: total charge =   2.9568, s =  0.9328, 
     Atom #   2: total charge =   2.9568, p =  2.0240, pz=  0.6747, px=  0.6747, py=  0.6747, 
           1           1  0.932801501493029        2.02396001518563     
     Atom #   3: total charge =   2.9568, s =  0.9328, 
     Atom #   3: total charge =   2.9568, p =  2.0240, pz=  0.6747, px=  0.6747, py=  0.6747, 
           1           1  0.932801501493029        2.02396001518563     
     Atom #   4: total charge =   2.9568, s =  0.9328, 
     Atom #   4: total charge =   2.9568, p =  2.0240, pz=  0.6747, px=  0.6747, py=  0.6747, 
     Spilling Parameter:   0.0144
 
     PROJWFC      :      3.48s CPU      3.85s WALL

 
   This run was terminated on:  20:24:20  29Jul2019            

=------------------------------------------------------------------------------=
   JOB DONE.
=------------------------------------------------------------------------------=
